<?xml version="1.0"?>
<VTKFile type="UnstructuredGrid"  version="0.1"  >
<UnstructuredGrid>
<Piece  NumberOfPoints="13554" NumberOfCells="26480">
<Points>
<DataArray  type="Float64"  NumberOfComponents="3"  format="ascii">-6 -6 0  20 -6 0  20 6 0  -6 6 0  -1.799038105676658 0 0  -1.299038105676658 -0.5 0  -0.799038105676658 0 0  -1.299038105676658 0.5 0  -0.5 -0.75 0  0 -1.25 0  0.5 -0.75 0  0 -0.25 0  -0.5 0.75 0  0 0.25 0  0.5 0.75 0  0 1.25 0  -5.500000000001825 -6 0  -5.00000000000365 -6 0  -4.500000000005476 -6 0  -4.000000000007301 -6 0  -3.500000000009125 -6 0  -3.00000000001095 -6 0  -2.500000000013202 -6 0  -2.000000000015761 -6 0  -1.50000000001764 -6 0  -1.000000000019466 -6 0  -0.5000000000212914 -6 0  -2.311839608637456e-11 -6 0  0.4999999999750564 -6 0  0.9999999999732312 -6 0  1.499999999971405 -6 0  1.999999999969446 -6 0  2.499999999966127 -6 0  2.999999999962597 -6 0  3.499999999959066 -6 0  3.999999999955534 -6 0  4.499999999952003 -6 0  4.999999999948473 -6 0  5.49999999994494 -6 0  5.999999999941409 -6 0  6.499999999937879 -6 0  6.999999999934694 -6 0  7.49999999993423 -6 0  7.999999999934113 -6 0  8.499999999933999 -6 0  8.999999999933882 -6 0  9.499999999933767 -6 0  9.999999999934184 -6 0  10.49999999993732 -6 0  10.99999999994062 -6 0  11.49999999994392 -6 0  11.99999999994722 -6 0  12.49999999995052 -6 0  12.99999999995381 -6 0  13.49999999995712 -6 0  13.99999999996042 -6 0  14.49999999996371 -6 0  14.99999999996701 -6 0  15.49999999997031 -6 0  15.99999999997361 -6 0  16.49999999997691 -6 0  16.99999999998021 -6 0  17.4999999999835 -6 0  17.99999999998681 -6 0  18.49999999999011 -6 0  18.99999999999341 -6 0  19.4999999999967 -6 0  20 -5.500000000001853 0  20 -5.000000000003705 0  20 -4.500000000005556 0  20 -4.000000000007409 0  20 -3.50000000000926 0  20 -3.000000000011112 0  20 -2.500000000012963 0  20 -2.000000000014814 0  20 -1.500000000016665 0  20 -1.000000000018516 0  20 -0.5000000000203677 0  20 -2.204547655537681e-11 0  20 0.4999999999796305 0  20 0.9999999999814779 0  20 1.499999999983327 0  20 1.999999999985175 0  20 2.499999999987029 0  20 2.999999999988882 0  20 3.499999999990735 0  20 3.999999999992589 0  20 4.49999999999444 0  20 4.999999999996293 0  20 5.499999999998147 0  19.50000000000303 6 0  19.00000000000606 6 0  18.50000000000909 6 0  18.00000000001212 6 0  17.50000000001515 6 0  17.00000000001818 6 0  16.50000000002121 6 0  16.00000000002424 6 0  15.50000000002727 6 0  15.00000000003029 6 0  14.50000000003332 6 0  14.00000000003635 6 0  13.50000000003939 6 0  13.00000000004241 6 0  12.50000000004544 6 0  12.00000000004847 6 0  11.5000000000515 6 0  11.00000000005453 6 0  10.50000000005755 6 0  10.00000000006058 6 0  9.50000000006361 6 0  9.000000000066636 6 0  8.500000000069663 6 0  8.000000000072694 6 0  7.500000000075721 6 0  7.000000000078401 6 0  6.50000000007836 6 0  6.000000000077973 6 0  5.500000000077584 6 0  5.0000000000772 6 0  4.500000000076811 6 0  4.00000000007589 6 0  3.500000000072248 6 0  3.000000000068443 6 0  2.500000000064645 6 0  2.000000000060837 6 0  1.500000000057039 6 0  1.000000000053234 6 0  0.5000000000494325 6 0  4.562750177683483e-11 6 0  -0.4999999999581739 6 0  -0.9999999999619789 6 0  -1.499999999965777 6 0  -1.999999999969585 6 0  -2.499999999973383 6 0  -2.999999999977188 6 0  -3.499999999980989 6 0  -3.999999999984787 6 0  -4.499999999988596 6 0  -4.999999999992394 6 0  -5.499999999996199 6 0  -6 5.500000000001853 0  -6 5.000000000003705 0  -6 4.500000000005556 0  -6 4.000000000007409 0  -6 3.50000000000926 0  -6 3.000000000011112 0  -6 2.500000000012963 0  -6 2.000000000014814 0  -6 1.500000000016665 0  -6 1.000000000018516 0  -6 0.5000000000203677 0  -6 2.204547655537681e-11 0  -6 -0.4999999999796305 0  -6 -0.9999999999814779 0  -6 -1.499999999983327 0  -6 -1.999999999985175 0  -6 -2.499999999987029 0  -6 -2.999999999988882 0  -6 -3.499999999990735 0  -6 -3.999999999992589 0  -6 -4.49999999999444 0  -6 -4.999999999996293 0  -6 -5.499999999998147 0  -1.798652623797024 -0.01962990787940635 0  -1.797496772543235 -0.03922954786375742 0  -1.795572334154145 -0.05876869872871639 0  -1.792882275974263 -0.0782172325198883 0  -1.789430745878327 -0.09754516100779272 0  -1.78522306587557 -0.1167226819276475 0  -1.780265723903582 -0.1357202249321832 0  -1.774566363824363 -0.1545084971870802 0  -1.768133773638067 -0.1730585285382951 0  -1.760977871932502 -0.1913417161820606 0  -1.753109692589439 -0.2093298687681933 0  -1.744541367771138 -0.2269952498691915 0  -1.735286109213394 -0.2443106207478749 0  -1.725358187854079 -0.2612492823573626 0  -1.714772911828365 -0.2777851165091517 0  -1.703546602864618 -0.2938926261455674 0  -1.691696571117556 -0.3095469746542509 0  -1.679241088477271 -0.3247240241643924 0  -1.666199360395112 -0.3394003727658096 0  -1.65259149627058 -0.3535533905926256 0  -1.638438478443802 -0.3671612547172209 0  -1.623762129842412 -0.3802029827994502 0  -1.608585080332201 -0.3926584654398785 0  -1.592930731823511 -0.4045084971870262 0  -1.576823222187039 -0.4157348061508851 0  -1.560287388035277 -0.426320082176651 0  -1.543348726425771 -0.4362480035360425 0  -1.526033355547057 -0.4455032620938652 0  -1.508367974445933 -0.4540715869122821 0  -1.490379821859767 -0.4619397662554095 0  -1.472096634215862 -0.4690956679610732 0  -1.453546602864495 -0.4755282581474589 0  -1.434758330609404 -0.4812276182267646 0  -1.415760787604716 -0.4861849601988129 0  -1.396583266684807 -0.4903926402015984 0  -1.377255338196813 -0.4938441702975626 0  -1.357806804405581 -0.4965342284774627 0  -1.338267653540506 -0.4984586668665699 0  -1.31866801355599 -0.4996145181203694 0  -1.279408197797339 -0.4996145181203699 0  -1.259808557813051 -0.4984586668665888 0  -1.240269406948093 -0.4965342284775051 0  -1.220820873156863 -0.4938441702976197 0  -1.201492944668872 -0.4903926402016704 0  -1.182315423748999 -0.4861849601989088 0  -1.163317880744434 -0.4812276182269119 0  -1.144529608489601 -0.4755282581477123 0  -1.125979577138343 -0.4690956679614011 0  -1.107696389494603 -0.4619397662558464 0  -1.089708236908473 -0.4540715869127846 0  -1.072042855807489 -0.4455032620944922 0  -1.054727484928798 -0.4362480035367446 0  -1.037788823319344 -0.4263200821774507 0  -1.0212529891675 -0.4157348061517021 0  -1.005145479531079 -0.4045084971879511 0  -0.9894911310224221 -0.3926584654409095 0  -0.9743140815122564 -0.380202982800605 0  -0.9596377329108691 -0.3671612547184732 0  -0.9454847150840451 -0.3535533905939346 0  -0.9318768509594187 -0.3394003727671238 0  -0.9188351228771346 -0.324724024165668 0  -0.9063796402367137 -0.3095469746554602 0  -0.894529608489562 -0.2938926261467564 0  -0.8833032995257204 -0.2777851165103025 0  -0.8727180234999081 -0.2612492823584579 0  -0.8627901021405279 -0.2443106207489568 0  -0.8535348435826871 -0.2269952498701913 0  -0.8449665187642977 -0.2093298687691053 0  -0.8370983394211652 -0.1913417161829084 0  -0.8299424377155358 -0.1730585285390712 0  -0.8235098475291767 -0.1545084971877673 0  -0.8178104874498986 -0.1357202249327651 0  -0.8128531454778642 -0.1167226819281381 0  -0.8086454654750708 -0.09754516100820496 0  -0.8051939353791064 -0.07821723252022435 0  -0.8025038771992037 -0.05876869872899349 0  -0.8005794388100933 -0.03922954786391442 0  -0.7994235875562945 -0.01962990787948142 0  -0.7994235875562916 0.0196299078794071 0  -0.8005794388100811 0.03922954786375862 0  -0.802503877199171 0.05876869872871737 0  -0.8051939353790528 0.07821723251988616 0  -0.8086454654749904 0.09754516100780108 0  -0.8128531454777497 0.1167226819276609 0  -0.8178104874497394 0.1357202249322002 0  -0.8235098475289587 0.1545084971870967 0  -0.8299424377152553 0.1730585285383113 0  -0.8370983394208206 0.1913417161820763 0  -0.8449665187638844 0.2093298687682086 0  -0.8535348435821851 0.2269952498692064 0  -0.8627901021399187 0.2443106207478691 0  -0.8727180234992129 0.2612492823573233 0  -0.8833032995249311 0.2777851165091213 0  -0.8945296084886836 0.2938926261455474 0  -0.9063796402357482 0.3095469746542355 0  -0.9188351228760521 0.3247240241644004 0  -0.9318768509581694 0.3394003727657722 0  -0.9454847150827066 0.3535533905925962 0  -0.9596377329094974 0.3671612547172051 0  -0.974314081510931 0.380202982799473 0  -0.989491131021136 0.3926584654398955 0  -1.005145479529808 0.4045084971870281 0  -1.021252989166279 0.4157348061508868 0  -1.037788823318041 0.4263200821766524 0  -1.054727484927547 0.4362480035360438 0  -1.072042855806261 0.4455032620938663 0  -1.089708236907385 0.454071586912283 0  -1.107696389493551 0.4619397662554103 0  -1.125979577137455 0.4690956679610738 0  -1.144529608488823 0.4755282581474594 0  -1.163317880743913 0.481227618226765 0  -1.182315423748601 0.4861849601988132 0  -1.20149294466851 0.4903926402015986 0  -1.220820873156504 0.4938441702975627 0  -1.240269406947736 0.4965342284774628 0  -1.25980855781281 0.4984586668665699 0  -1.279408197797326 0.4996145181203694 0  -1.318668013555974 0.4996145181203701 0  -1.33826765354026 0.4984586668665892 0  -1.357806804405216 0.4965342284775059 0  -1.377255338196443 0.4938441702976212 0  -1.396583266684433 0.4903926402016728 0  -1.415760787604303 0.4861849601989122 0  -1.434758330608866 0.4812276182269165 0  -1.453546602863697 0.4755282581477182 0  -1.472096634214953 0.4690956679614086 0  -1.490379821858691 0.4619397662558556 0  -1.508367974444819 0.4540715869127957 0  -1.526033355545801 0.4455032620945052 0  -1.54334872642449 0.4362480035367599 0  -1.560287388033943 0.4263200821774683 0  -1.576823222185786 0.4157348061517221 0  -1.592930731822206 0.4045084971879737 0  -1.608585080330867 0.3926584654409306 0  -1.623762129841058 0.3802029828006066 0  -1.638438478442393 0.3671612547185227 0  -1.65259149626927 0.3535533905939355 0  -1.666199360393926 0.3394003727670928 0  -1.679241088476203 0.3247240241656421 0  -1.691696571116591 0.3095469746554744 0  -1.703546602863742 0.2938926261467731 0  -1.714772911827583 0.2777851165103216 0  -1.725358187853383 0.2612492823584976 0  -1.73528610
[...]
<PointData  Scalars="pressure"> 
<DataArray  type="Float64"  Name="pressure"  format="ascii">1.2840738761826834e-01  0.0000000000000000e+00  0.0000000000000000e+00  1.2838123785955585e-01  7.5684796585580993e-01  -1.3829394520463723e-01  5.1200830953723041e-02  -1.3828473606608394e-01  4.3315546489790741e-01  -6.3441601891750132e-01  -3.8964438532228113e-01  -4.8100076719063228e-01  4.3302225840325537e-01  -4.8148042180736017e-01  -3.8989914862608793e-01  -6.3465699624321903e-01  1.2741562726598205e-01  1.2412346184825267e-01  1.1693819788445449e-01  1.0846462331273912e-01  9.5735123227897886e-02  8.0030865029755233e-02  6.1104007365847444e-02  3.8578417575066450e-02  1.2716862789883853e-02  -1.3976323909608268e-02  -4.6189453318421184e-02  -7.1931582033837996e-02  -1.0542523699670500e-01  -1.2886756198430468e-01  -1.6845890121136370e-01  -1.8036591946362002e-01  -2.0550750724044217e-01  -2.2576866823609534e-01  -2.4005772699621916e-01  -2.5653213790067042e-01  -2.6905737656780815e-01  -2.8018423120208019e-01  -2.8980940267791055e-01  -2.9818289670121306e-01  -3.0469448718374120e-01  -3.0820022254903195e-01  -3.0769890449872483e-01  -3.0597650093229434e-01  -2.9869096964892827e-01  -2.9197453671988416e-01  -2.7520772527830761e-01  -2.6370697114199970e-01  -2.4535053992084244e-01  -2.2330498888090183e-01  -2.0578288769574332e-01  -1.8184035417627512e-01  -1.6329929797882470e-01  -1.4092759042924602e-01  -1.2370406109351656e-01  -1.0501461879129992e-01  -8.7809239093803088e-02  -7.5690185947597535e-02  -6.1398657578009615e-02  -5.1421348325368002e-02  -4.1659174628106199e-02  -3.3488388586196655e-02  -2.6418615954128723e-02  -1.9498306652290309e-02  -1.5002396492974791e-02  -7.7391336858363899e-03  -5.0361493909463441e-03  0.0000000000000000e+00  0.0000000000000000e+00  0.0000000000000000e+00  0.0000000000000000e+00  0.0000000000000000e+00  0.0000000000000000e+00  0.0000000000000000e+00  0.0000000000000000e+00  0.0000000000000000e+00  0.0000000000000000e+00  0.0000000000000000e+00  0.0000000000000000e+00  0.0000000000000000e+00  0.0000000000000000e+00  0.0000000000000000e+00  0.0000000000000000e+00  0.0000000000000000e+00  0.0000000000000000e+00  0.0000000000000000e+00  0.0000000000000000e+00  0.0000000000000000e+00  0.0000000000000000e+00  0.0000000000000000e+00  -4.5883110256914007e-03  -9.0489687641406719e-03  -1.4212480622412267e-02  -2.0346162722166473e-02  -2.5081349661794133e-02  -3.4435621437960591e-02  -4.0786020815746386e-02  -5.0812919869928710e-02  -6.4103517614680597e-02  -7.2310571996130155e-02  -9.0428637231321593e-02  -1.0528938465471838e-01  -1.2292153702643523e-01  -1.4142930600188564e-01  -1.6143417821898848e-01  -1.8164379067878886e-01  -2.0579541215367533e-01  -2.2536155950227041e-01  -2.4431409703193085e-01  -2.6331118787204905e-01  -2.7586166964357933e-01  -2.9250950151131394e-01  -2.9785138093254193e-01  -3.0784262172917498e-01  -3.0688661127571693e-01  -3.0926970524681829e-01  -3.0409401372346689e-01  -2.9726783298202641e-01  -2.9132403678997298e-01  -2.7943580495370751e-01  -2.6926374455807728e-01  -2.5716754103530370e-01  -2.3909604752489652e-01  -2.2749914876170890e-01  -2.0436321851722075e-01  -1.8102335811926853e-01  -1.6410827919887999e-01  -1.3161183239202431e-01  -1.0509349332652901e-01  -7.1924717318780654e-02  -4.6216375655025468e-02  -1.4036161022073943e-02  1.2646289481663677e-02  3.8635676276988870e-02  6.0952235547687660e-02  8.0084656163985135e-02  9.5611084547813446e-02  1.0845677602696570e-01  1.1698852908287499e-01  1.2408426510254890e-01  1.2739137482083940e-01  1.2928670036148165e-01  1.3265453279023270e-01  1.3854453426441515e-01  1.4671501135317463e-01  1.5697536106261037e-01  1.6896842538070539e-01  1.8199658437781677e-01  1.9528724340260645e-01  2.0749520040629424e-01  2.1775082421934669e-01  2.2449801176914988e-01  2.2683113598168447e-01  2.2428752818019745e-01  2.1762843621814565e-01  2.0757437274535148e-01  1.9530517198679012e-01  1.8206636425595035e-01  1.6899614467311544e-01  1.5699798175297175e-01  1.4676246303515800e-01  1.3853027469711257e-01  1.3268951174438318e-01  1.2929717847214769e-01  7.5472194645532786e-01  7.4864135000635768e-01  7.3807275476625589e-01  7.2410071772431517e-01  7.0580249466787992e-01  6.8414595853336202e-01  6.5902168686274298e-01  6.2997998246612963e-01  5.9913286256446652e-01  5.6433715135649920e-01  5.2770208609407065e-01  4.8963881505748985e-01  4.4883339622856189e-01  4.0844874905930034e-01  3.6503305292385746e-01  3.2331968335402250e-01  2.7967571404578062e-01  2.3832826949732394e-01  1.9546052247029444e-01  1.5606674030998571e-01  1.1561237662851444e-01  7.9495893749227151e-02  4.3184937325420926e-02  1.1549428485786687e-02  -2.0023541417810767e-02  -4.6613405132753062e-02  -7.1514033500048299e-02  -9.3549361480177340e-02  -1.1109393870902839e-01  -1.2667072660519807e-01  -1.3930751902099778e-01  -1.4805257249534509e-01  -1.5463122322283235e-01  -1.5875763662906067e-01  -1.5987523408905530e-01  -1.5887335058820617e-01  -1.5624493024865102e-01  -1.5134387491031184e-01  -1.4568014117356332e-01  -1.3060795144491863e-01  -1.2168215535431012e-01  -1.1304248501374457e-01  -1.0350180159859536e-01  -9.4316149816731379e-02  -8.4979659752120087e-02  -7.6033800353811964e-02  -6.7247031456358658e-02  -5.8908395348521866e-02  -5.0847316581961760e-02  -4.3178168712684588e-02  -3.5831554019199144e-02  -2.8816859904733115e-02  -2.1965689443210149e-02  -1.5380108511435793e-02  -9.0292339794381653e-03  -2.7806745900881575e-03  3.2620257181515044e-03  9.0094850699663914e-03  1.4452595678637999e-02  1.9504182803220756e-02  2.4102601443643415e-02  2.8181671602628699e-02  3.1745666039970484e-02  3.4675966577695623e-02  3.7054259080007916e-02  3.8999311687189175e-02  4.0489002944638308e-02  4.1698286669572308e-02  4.2708638772319833e-02  4.3692016769926866e-02  4.4607523062614320e-02  4.5624253437716221e-02  4.6681008188604017e-02  4.7734374460814265e-02  4.8814375380294608e-02  4.9760205415164786e-02  5.0548294924243418e-02  5.1017719167562522e-02  5.1020032918455013e-02  5.0520610710819994e-02  4.9778462933769425e-02  4.8819139229786257e-02  4.7749588388766681e-02  4.6677256640023569e-02  4.5650440636565891e-02  4.4610594331225349e-02  4.3700511428724137e-02  4.2719971223696557e-02  4.1726605108930413e-02  4.0498717932694099e-02  3.8977267747931491e-02  3.7089815579241472e-02  3.4689605577754155e-02  3.1758256842173073e-02  2.8194573331681572e-02  2.4114339589047368e-02  1.9515411239536675e-02  1.4463310125046857e-02  9.0199907508741132e-03  3.2725031954489135e-03  -2.7699358870661175e-03  -9.0181857710694997e-03  -1.5368228675038457e-02  -2.1953274815674152e-02  -2.8803522500790477e-02  -3.5816572964804956e-02  -4.3162978511326486e-02  -5.0831379471197299e-02  -5.8891804785160672e-02  -6.7230139105105044e-02  -7.6016644146472648e-02  -8.4962654999036963e-02  -9.4299537620267715e-02  -1.0348600112995021e-01  -1.1302771675099087e-01  -1.2166896029442439e-01  -1.3059649259045772e-01  -1.4567334881479896e-01  -1.5133985481791251e-01  -1.5624376875715268e-01  -1.5887522016988362e-01  -1.5988011212584805e-01  -1.5876567575919798e-01  -1.5464263496605518e-01  -1.4806733805417185e-01  -1.3932521249551466e-01  -1.2669103690097583e-01  -1.1111626833180205e-01  -9.3573204385924091e-02  -7.1539449379697251e-02  -4.6636744241443630e-02  -2.0066781059347755e-02  1.1526438394654445e-02  4.3089897243115863e-02  7.9631986748098058e-02  1.1555726522578923e-01  1.5593841099567682e-01  1.9565029047458735e-01  2.3750598176451293e-01  2.8046476110940838e-01  3.2301600221604682e-01  3.6543362066271295e-01  4.0798040603444008e-01  4.4874953348858559e-01  4.8979938247338506e-01  5.2734573076152425e-01  5.6465838473636609e-01  5.9823165995196903e-01  6.2992097008330694e-01  6.5907467769867378e-01  6.8395811980423615e-01  7.0615198720413908e-01  7.2418791150041939e-01  7.3838675374070994e-01  7.4846223680210233e-01  7.5481284450396824e-01  4.7704268752208295e-01  5.1689149420022085e-01  5.4761711914311351e-01  5.7275910298983945e-01  5.8717143371847602e-01  5.9257223339256948e-01  5.8752246361120808e-01  5.7306954132978805e-01  5.4817001812785227e-01  5.1472987083903254e-01  4.7218995884091730e-01  4.2382807376896175e-01  3.6728281420425851e-01  3.0747512770983948e-01  2.4242966490584636e-01  1.7398330451606228e-01  1.0489950267184937e-01  3.4146356723757945e-02  -3.7527431335682725e-02  -1.0605540094740555e-01  -1.7422774935811197e-01  -2.3887721398306641e-01  -3.0189962776466406e-01  -3.5838123141202821e-01  -4.1318322865884061e-01  -4.6257916119939324e-01  -5.0519484071401555e-01  -5.4504637039622728e-01  -5.7730689477299246e-01  -6.0551077420130450e-01  -6.2855188413605989e-01  -6.4528613888752762e-01  -6.5762277590212470e-01  -6.6582557857281344e-01  -6.6797120644847219e-01  -6.6816926644186680e-01  -6.6373749244680791e-01  -6.5576984249691861e-01  -6.4683826125228305e-01  -6.2166474712102004e-01  -6.0692527414456010e-01  -5.9193146489616222e-01  -5.7673936986436281e-01  -5.6125971653204576e-01  -5.4656963103864309e-01  -5.3217125381462915e-01  -5.1834600233532657e-01  -5.0550364018193417e-01  -4.9340221134092088e-01  -4.8232047418459967e-01  -4.7234448071033547e-01  -4.6318388440278163e-01  -4.5499122161949374e-01  -4.4765599224647007e-01  -4.4106608135804631e-01  -4.3523020904279813e-01  -4.3017016754341098e-01  -4.2549298683437414e-01  -4.2151959456564131e-01  -4.1776036229458580e-01  -4.1452834248485110e-01  -4.1139342052090244e-01  -4.0864302299808641e-01  -4.0587740694908531e-01  -4.0345294024956729e-01  -4.0097559859869791e-01  -3.9879478079310698e-01  -3.9661192234720805e-01  -3.9472404098473202e-01  -3.9291509079804771e-01  -3.9141030924211129e-01  -3.9011564957568745e-01  -3.8908969183939462e-01  -3.8841701014947361e-01  -3.8801091897891349e-01  -3.8796450591615089e-01  -3.8822079975487211e-01  -3.8878140776302211e-01  -3.9072547110267236e-01  -3.9209359381669090e-01  -3.9358549459009218e-01  -3.9531583927863434e-01  -3.9707718850824747e-01  -3.9904252962882758e-01  -4.0096807582022026e-01  -4.0308366084169189e-01  -4.0516877502988158e-01  -4.0743074648451810e-01  -4.0971438683173866e-01  -4.1219973626635081e-01  -4.1484021048234498e-01  -4.1772774501800269e-01  -4.2086078429637086e-01  -4.2438657345362096e-01  -4.2829981620461471e-01  -4.3259629060223992e-01  -4.3739922709563950e-01  -4.4265518314154301e-01  -4.4834493495725525e-01  -4.5460566591753554e-01  -4.6126277059716453e-01  -4.6836457650450264e-01  -4.7587508654719118e-01  -4.8315704922203628e-01  -4.9093924433279951e-01  -4.9832335007509992e-01  -5.0552668766803466e-01  -5.1173670563390317e-01  -5.1778859008015587e-01  -5.2183549390069384e-01  -5.2466766554264599e-01  -5.2550319223311748e-01  -5.2486113451172389e-01  -5.2062216221190494e-01  -5.1549140696312490e-01  -5.0585643115746326e-01  -4.9511114049845567e-01  -4.6425414491024802e-01  -4.4657625541095936e-01  -4.2573180682074119e-01  -4.0456806442757504e-01  -3.8179360918825739e-01  -3.5902986783225349e-01  -3.3672558340860154e-01  -3.1375174189641114e-01  -2.9290723176807504e-01  -2.7269898373445800e-01  -2.5320450578774140e-01  -2.3635285316586030e-01  -2.1974917999729271e-01  -2.0584252577410320e-01  -1.9309222485584154e-01  -1.8068149776535561e-01  -1.7038296535218922e-01  -1.6068284197653365e-01  -1.5140681545905266e-01  -1.4190520930351047e-01  -1.3361513322278756e-01  -1.2444025403774199e-01  -1.1477727453890141e-01  -1.0380279955034093e-01  -9.2536479164648675e-02  -7.7921079057461540e-02  -6.2641948677801929e-02  -4.3430575741359119e-02  -2.2921425553409661e-02  3.0902911098023302e-03  3.1182894810420640e-02  6.4490730467871252e-02  1.0190822255312855e-01  1.4210992573534348e-01  1.8750583884950317e-01  2.3461096733773670e-01  2.8435636345017740e-01  3.3521620358214727e-01  3.8491815700901583e-01  3.8479103180897639e-01  3.3509781954536938e-01  2.8424953674501008e-01  2.3451790605398862e-01  1.8742797641723188e-01  1.4204891717387216e-01  1.0186417820436668e-01  6.4464297305222212e-02  3.1173356639748729e-02  3.0964262527682072e-03  -2.2900090163342615e-02  -4.3396087335798118e-02  -6.2595083146130229e-02  -7.7863897685487876e-02  -9.2468721836281492e-02  -1.0373255082683148e-01  -1.1466054701833533e-01  -1.2436068480360739e-01  -1.3327610227322079e-01  -1.4201052479648493e-01  -1.5127375308566271e-01  -1.6056016994943872e-01  -1.7030236326664952e-01  -1.8057826724758316e-01  -1.9307041546566417e-01  -2.0540747980531224e-01  -2.2023132952756974e-01  -2.3594776773603132e-01  -2.5368297422322239e-01  -2.7219810640887193e-01  -2.9262966119207168e-01  -3.1411418449502043e-01  -3.3662609192606846e-01  -3.5873957509294668e-01  -3.8230681524589566e-01  -4.0404238056758068e-01  -4.2620271959199663e-01  -4.4619943126500267e-01  -4.6471487848992266e-01  -4.9471600473004212e-01  -5.0664087413254510e-01  -5.1492375069331320e-01  -5.2175623860518272e-01  -5.2460307936616313e-01  -5.2599895760330007e-01  -5.2499475160626696e-01  -5.2227178347196590e-01  -5.1812676089974496e-01  -5.1204758322163091e-01  -5.0608803533337687e-01  -4.9868827056509241e-01  -4.9130349133000967e-01  -4.8365342404827283e-01  -4.7633524938536043e-01  -4.6872587394243453e-01  -4.6169452731962507e-01  -4.5505006552410660e-01  -4.4877564615326115e-01  -4.4303210029411588e-01  -4.3778211032542752e-01  -4.3291496806335644e-01  -4.2864999386658065e-01  -4.2471464598768494e-01  -4.2121182980444155e-01  -4.1807628676960246e-01  -4.1513562640878893e-01  -4.1252907199419064e-01  -4.1004327885412151e-01  -4.0773008883785888e-01  -4.0548262148752684e-01  -4.0333362559518154e-01  -4.0132320450692888e-01  -3.9927495154282938e-01  -3.9741891035730570e-01  -3.9556292285301276e-01  -3.9388631744605773e-01  -3.9235357069995463e-01  -3.9098068285995202e-01  -3.8902693565276514e-01  -3.8845725626764943e-01  -3.8819211221697802e-01  -3.8823035290154989e-01  -3.8862862651411950e-01  -3.8929480409059602e-01  -3.9031500006217063e-01  -3.9160532421754257e-01  -3.9310696584131594e-01  -3.9491378436988811e-01  -3.9680100866885831e-01  -3.9898410985975502e-01  -4.0116486549148628e-01  -4.0364283533173784e-01  -4.0607718509931090e-01  -4.0884310230131699e-01  -4.1157793732691589e-01  -4.1473825005631471e-01  -4.1796201549607281e-01  -4.2172797836970288e-01  -4.2570268702738812e-01  -4.3038108873743769e-01  -4.3544241703030501e-01  -4.4127957569642673e-01  -4.4787066112501822e-01  -4.5520704005107121e-01  -4.6340089833420234e-01  -4.7256278846981181e-01  -4.8254017959459561e-01  -4.9362348579542936e-01  -5.0572663710815657e-01  -5.1857084325476022e-01  -5.3239807852707921e-01  -5.4679852574431431e-01  -5.6149071219726188e-01  -5.7697255045449380e-01  -5.9216676884151398e-01  -6.0716262623047002e-01  -6.2190408185003099e-01  -6.4708077623150639e-01  -6.5601335658942206e-01  -6.6398180182148847e-01  -6.6841380067541167e-01  -6.6821526514394314e-01  -6.6606880078283248e-01  -6.5786426960588107e-01  -6.4552526551430855e-01  -6.2878794571524432e-01  -6.0574286692456702e-01  -5.7753427307279404e-01  -5.4526835986080591e-01  -5.0541044358292031e-01  -4.6278791871606006e-01  -4.1338415152462665e-01  -3.5857411223378394e-01  -3.0208256541147888e-01  -2.3905817252045850e-01  -1.7436697233547208e-01  -1.0624509487951805e-01  -3.7827112808326534e-02  3.4279266328365338e-02  1.0351383802897182e-01  1.7405098606398303e-01  2.4126778489396997e-01  3.0710357252480802e-01  3.6735468982485464e-01  4.2402327298374520e-01  4.7238515485894683e-01  5.1501914915114200e-01  5.4836279339002880e-01  5.7211706659791417e-01  5.8811443624107163e-01  5.9225685320028432e-01  5.8725257561490163e-01  5.7260665662946064e-01  5.4748737016698135e-01  5.1675304266048283e-01  4.7690653311207809e-01  -2.9873476010752570e-01  9.2239908558694350e-02  9.1526635040571569e-02  -3.2336705384706138e-01  9.7030804851376773e-02  9.7076538898888856e-02  -3.7882021236276092e-01  -2.7257188539064114e-01  -2.7287787445303258e-01  -1.0823611888818620e-01  -1.0806339263700178e-01  1.1392106072464399e-01  1.1385307007398283e-01  2.4440783627088972e-01  2.4372011467099472e-01  -3.9800568004009190e-01  -3.7086909356613645e-01  -3.6919222039378363e-01  2.0956722886420998e-01  2.1116203804793771e-01  -4.8586989181315113e-02  -4.8499737802290430e-02  -2.2687228779606269e-01  -2.2692950569745482e-01  1.4979701950676860e-01  1.4972248137962649e-01  -3.9535734411429851e-01  -3.9520087837591489e-01  3.7165892462780420e-01  -4.2834506673379869e-01  1.7442553891532809e-02  -3.9300505977786498e-01  -3.9307467091035819e-01  3.7741486360036464e-01  -2.6992843336057276e-01  6.3424110853574356e-02  6.3459046717966913e-02  4.4120527985255883e-02  1.5802891225202034e-01  4.4084877419889319e-02  1.5797001631944668e-01  2.0682509409260411e-01  2.0672084863138607e-01  3.7836009745422672e-01  3.8768841309604157e-01  -2.5357386805897392e-01  -4.5942127333620875e-01  3.3667481687309285e-02  3.5176995135873253e-02  -6.5453318841430727e-02  -2.5639432854452471e-01  -3.5164545856141632e-01  -6.5581414061777407e-02  -2.5652072183181912e-01  -3.5178002282953813e-01  -4.0713898218203126e-01  -4.0751114098927504e-01  -4.0122572964666187e-01  -4.0096201243222795e-01  -3.9499981655056277e-01  -3.9478943890788898e-01  5.3513606384794332e-01  -2.6298828301359517e-01  -3.8811709542331063e-01  -2.6208512741775070e-01  -3.8638396782903195e-01  -4.0036175022264686e-01  -4.0055590171766664e-01  -4.6618757693305207e-01  3.3901948167158864e-02  3.3852180377931210e-02  -4.4796465443419997e-01  -4.4341513112061554e-01  2.1146926219615956e-03  2.1097169513247327e-03  -3.6153532519706538e-01  -3.6363170655455807e-01  -1.3559447800846328e-01  -1.3613050365035892e-01  6.2335140458387457e-02  2.9986854177848621e-01  2.9975421845316774e-01  -3.1598282192284505e-01  -3.1614787180712606e-01  -4.5536572027907357e-01  -4.5631180711474961e-01  -4.5551180259465762e-01  -3.3437772331897386e-01  -2.8310816572819048e-01  -3.3356548780474748e-01  -2.8237783935143346e-01  -4.1699156264775172e-01  2.8245164956176559e-03  -3.0996180881787870e-02  -3.0995641172046021e-02  4.1182780431562077e-01  4.1171526708341283e-01  -4.2715262340740173e-01  -4.2733930746673926e-01  -4.2709277843084775e-01  -4.2729748822604668e-01  -3.1994075419321194e-01  -3.2076622129852483e-01  -3.1610138666411840e-03  -2.7887591822069349e-03  -4.0337623330176137e-01  5.2072458872759568e-02  5.2084144671378750e-02  -7.8508830485014044e-02  -7.5798359650808764e-02  5.8357361733908507e-02  2.4664875951244103e-01  2.5340038006120474e-01  5.5270528142729713e-01  -2.9227856642289600e-02  -1.6736808748130265e-02  -1.6980449645820902e-02  1.1350173421399309e-01  1.1336589721239215e-01  -4.3197437376058084e-01  -4.3232254079412913e-01  4.5136058196421247e-01  -4.0976554782428481e-01  -4.0997756656649309e-01  6.1527500747288233e-01  -2.2017658914651372e-01  -2.2033943220337196e-01  -4.0657647040083666e-01  -4.0705996815869278e-01  -3.6549254172801417e-03  -1.5298024822580805e-03  4.5361730207433726e-01  -2.8236411238660319e-01  1.6138062438183377e-02  1.6144729681570779e-02  -3.0236076032930664e-01  -3.0477126428278600e-01  4.5607241962234778e-02  4.5404106835824770e-02  -3.9625476601361181e-01  -3.9599780285386305e-01  -2.9399174744223322e-01  -2.9398600019152493e-01  4.4771910720492900e-02  2.8020133651466106e-02  1.7549448499395268e-01  1.7202954531481945e-01  5.9542616909315671e-02  5.9630532057805399e-02  -4.7464040165139509e-01  -4.8052490268199316e-01  -9.4909577093701070e-02  1.2751317519535382e-01  1.2750921316611888e-01  -3.2581484290259610e-01  -3.2394058629828587e-01  -1.7500275631922688e-01  -1.7516509732492597e-01  1.8895595117355762e-01  1.8903503896677507e-01  3.3165697423645800e-02  3.3082094680900620e-02  2.8688314784141261e-01  6.6295230243686931e-01  -3.9686357149247314e-01  -3.9666250859423641e-01  -2.8735339727292142e-01  -2.8851253186101805e-01  -4.0268304787549325e-01  -4.0287562862111187e-01  -1.3480673324164910e-01  -2.8030478440014106e-01  -2.8075134044688327e-01  -3.6854012143934767e-01  -3.6741546705562422e-01  3.4076905041790317e