<?xml version="1.0"?>
<VTKFile type="UnstructuredGrid"  version="0.1"  >
<UnstructuredGrid>
<Piece  NumberOfPoints="13554" NumberOfCells="26480">
<Points>
<DataArray  type="Float64"  NumberOfComponents="3"  format="ascii">-6 -6 0  20 -6 0  20 6 0  -6 6 0  -1.799038105676658 0 0  -1.299038105676658 -0.5 0  -0.799038105676658 0 0  -1.299038105676658 0.5 0  -0.5 -0.75 0  0 -1.25 0  0.5 -0.75 0  0 -0.25 0  -0.5 0.75 0  0 0.25 0  0.5 0.75 0  0 1.25 0  -5.500000000001825 -6 0  -5.00000000000365 -6 0  -4.500000000005476 -6 0  -4.000000000007301 -6 0  -3.500000000009125 -6 0  -3.00000000001095 -6 0  -2.500000000013202 -6 0  -2.000000000015761 -6 0  -1.50000000001764 -6 0  -1.000000000019466 -6 0  -0.5000000000212914 -6 0  -2.311839608637456e-11 -6 0  0.4999999999750564 -6 0  0.9999999999732312 -6 0  1.499999999971405 -6 0  1.999999999969446 -6 0  2.499999999966127 -6 0  2.999999999962597 -6 0  3.499999999959066 -6 0  3.999999999955534 -6 0  4.499999999952003 -6 0  4.999999999948473 -6 0  5.49999999994494 -6 0  5.999999999941409 -6 0  6.499999999937879 -6 0  6.999999999934694 -6 0  7.49999999993423 -6 0  7.999999999934113 -6 0  8.499999999933999 -6 0  8.999999999933882 -6 0  9.499999999933767 -6 0  9.999999999934184 -6 0  10.49999999993732 -6 0  10.99999999994062 -6 0  11.49999999994392 -6 0  11.99999999994722 -6 0  12.49999999995052 -6 0  12.99999999995381 -6 0  13.49999999995712 -6 0  13.99999999996042 -6 0  14.49999999996371 -6 0  14.99999999996701 -6 0  15.49999999997031 -6 0  15.99999999997361 -6 0  16.49999999997691 -6 0  16.99999999998021 -6 0  17.4999999999835 -6 0  17.99999999998681 -6 0  18.49999999999011 -6 0  18.99999999999341 -6 0  19.4999999999967 -6 0  20 -5.500000000001853 0  20 -5.000000000003705 0  20 -4.500000000005556 0  20 -4.000000000007409 0  20 -3.50000000000926 0  20 -3.000000000011112 0  20 -2.500000000012963 0  20 -2.000000000014814 0  20 -1.500000000016665 0  20 -1.000000000018516 0  20 -0.5000000000203677 0  20 -2.204547655537681e-11 0  20 0.4999999999796305 0  20 0.9999999999814779 0  20 1.499999999983327 0  20 1.999999999985175 0  20 2.499999999987029 0  20 2.999999999988882 0  20 3.499999999990735 0  20 3.999999999992589 0  20 4.49999999999444 0  20 4.999999999996293 0  20 5.499999999998147 0  19.50000000000303 6 0  19.00000000000606 6 0  18.50000000000909 6 0  18.00000000001212 6 0  17.50000000001515 6 0  17.00000000001818 6 0  16.50000000002121 6 0  16.00000000002424 6 0  15.50000000002727 6 0  15.00000000003029 6 0  14.50000000003332 6 0  14.00000000003635 6 0  13.50000000003939 6 0  13.00000000004241 6 0  12.50000000004544 6 0  12.00000000004847 6 0  11.5000000000515 6 0  11.00000000005453 6 0  10.50000000005755 6 0  10.00000000006058 6 0  9.50000000006361 6 0  9.000000000066636 6 0  8.500000000069663 6 0  8.000000000072694 6 0  7.500000000075721 6 0  7.000000000078401 6 0  6.50000000007836 6 0  6.000000000077973 6 0  5.500000000077584 6 0  5.0000000000772 6 0  4.500000000076811 6 0  4.00000000007589 6 0  3.500000000072248 6 0  3.000000000068443 6 0  2.500000000064645 6 0  2.000000000060837 6 0  1.500000000057039 6 0  1.000000000053234 6 0  0.5000000000494325 6 0  4.562750177683483e-11 6 0  -0.4999999999581739 6 0  -0.9999999999619789 6 0  -1.499999999965777 6 0  -1.999999999969585 6 0  -2.499999999973383 6 0  -2.999999999977188 6 0  -3.499999999980989 6 0  -3.999999999984787 6 0  -4.499999999988596 6 0  -4.999999999992394 6 0  -5.499999999996199 6 0  -6 5.500000000001853 0  -6 5.000000000003705 0  -6 4.500000000005556 0  -6 4.000000000007409 0  -6 3.50000000000926 0  -6 3.000000000011112 0  -6 2.500000000012963 0  -6 2.000000000014814 0  -6 1.500000000016665 0  -6 1.000000000018516 0  -6 0.5000000000203677 0  -6 2.204547655537681e-11 0  -6 -0.4999999999796305 0  -6 -0.9999999999814779 0  -6 -1.499999999983327 0  -6 -1.999999999985175 0  -6 -2.499999999987029 0  -6 -2.999999999988882 0  -6 -3.499999999990735 0  -6 -3.999999999992589 0  -6 -4.49999999999444 0  -6 -4.999999999996293 0  -6 -5.499999999998147 0  -1.798652623797024 -0.01962990787940635 0  -1.797496772543235 -0.03922954786375742 0  -1.795572334154145 -0.05876869872871639 0  -1.792882275974263 -0.0782172325198883 0  -1.789430745878327 -0.09754516100779272 0  -1.78522306587557 -0.1167226819276475 0  -1.780265723903582 -0.1357202249321832 0  -1.774566363824363 -0.1545084971870802 0  -1.768133773638067 -0.1730585285382951 0  -1.760977871932502 -0.1913417161820606 0  -1.753109692589439 -0.2093298687681933 0  -1.744541367771138 -0.2269952498691915 0  -1.735286109213394 -0.2443106207478749 0  -1.725358187854079 -0.2612492823573626 0  -1.714772911828365 -0.2777851165091517 0  -1.703546602864618 -0.2938926261455674 0  -1.691696571117556 -0.3095469746542509 0  -1.679241088477271 -0.3247240241643924 0  -1.666199360395112 -0.3394003727658096 0  -1.65259149627058 -0.3535533905926256 0  -1.638438478443802 -0.3671612547172209 0  -1.623762129842412 -0.3802029827994502 0  -1.608585080332201 -0.3926584654398785 0  -1.592930731823511 -0.4045084971870262 0  -1.576823222187039 -0.4157348061508851 0  -1.560287388035277 -0.426320082176651 0  -1.543348726425771 -0.4362480035360425 0  -1.526033355547057 -0.4455032620938652 0  -1.508367974445933 -0.4540715869122821 0  -1.490379821859767 -0.4619397662554095 0  -1.472096634215862 -0.4690956679610732 0  -1.453546602864495 -0.4755282581474589 0  -1.434758330609404 -0.4812276182267646 0  -1.415760787604716 -0.4861849601988129 0  -1.396583266684807 -0.4903926402015984 0  -1.377255338196813 -0.4938441702975626 0  -1.357806804405581 -0.4965342284774627 0  -1.338267653540506 -0.4984586668665699 0  -1.31866801355599 -0.4996145181203694 0  -1.279408197797339 -0.4996145181203699 0  -1.259808557813051 -0.4984586668665888 0  -1.240269406948093 -0.4965342284775051 0  -1.220820873156863 -0.4938441702976197 0  -1.201492944668872 -0.4903926402016704 0  -1.182315423748999 -0.4861849601989088 0  -1.163317880744434 -0.4812276182269119 0  -1.144529608489601 -0.4755282581477123 0  -1.125979577138343 -0.4690956679614011 0  -1.107696389494603 -0.4619397662558464 0  -1.089708236908473 -0.4540715869127846 0  -1.072042855807489 -0.4455032620944922 0  -1.054727484928798 -0.4362480035367446 0  -1.037788823319344 -0.4263200821774507 0  -1.0212529891675 -0.4157348061517021 0  -1.005145479531079 -0.4045084971879511 0  -0.9894911310224221 -0.3926584654409095 0  -0.9743140815122564 -0.380202982800605 0  -0.9596377329108691 -0.3671612547184732 0  -0.9454847150840451 -0.3535533905939346 0  -0.9318768509594187 -0.3394003727671238 0  -0.9188351228771346 -0.324724024165668 0  -0.9063796402367137 -0.3095469746554602 0  -0.894529608489562 -0.2938926261467564 0  -0.8833032995257204 -0.2777851165103025 0  -0.8727180234999081 -0.2612492823584579 0  -0.8627901021405279 -0.2443106207489568 0  -0.8535348435826871 -0.2269952498701913 0  -0.8449665187642977 -0.2093298687691053 0  -0.8370983394211652 -0.1913417161829084 0  -0.8299424377155358 -0.1730585285390712 0  -0.8235098475291767 -0.1545084971877673 0  -0.8178104874498986 -0.1357202249327651 0  -0.8128531454778642 -0.1167226819281381 0  -0.8086454654750708 -0.09754516100820496 0  -0.8051939353791064 -0.07821723252022435 0  -0.8025038771992037 -0.05876869872899349 0  -0.8005794388100933 -0.03922954786391442 0  -0.7994235875562945 -0.01962990787948142 0  -0.7994235875562916 0.0196299078794071 0  -0.8005794388100811 0.03922954786375862 0  -0.802503877199171 0.05876869872871737 0  -0.8051939353790528 0.07821723251988616 0  -0.8086454654749904 0.09754516100780108 0  -0.8128531454777497 0.1167226819276609 0  -0.8178104874497394 0.1357202249322002 0  -0.8235098475289587 0.1545084971870967 0  -0.8299424377152553 0.1730585285383113 0  -0.8370983394208206 0.1913417161820763 0  -0.8449665187638844 0.2093298687682086 0  -0.8535348435821851 0.2269952498692064 0  -0.8627901021399187 0.2443106207478691 0  -0.8727180234992129 0.2612492823573233 0  -0.8833032995249311 0.2777851165091213 0  -0.8945296084886836 0.2938926261455474 0  -0.9063796402357482 0.3095469746542355 0  -0.9188351228760521 0.3247240241644004 0  -0.9318768509581694 0.3394003727657722 0  -0.9454847150827066 0.3535533905925962 0  -0.9596377329094974 0.3671612547172051 0  -0.974314081510931 0.380202982799473 0  -0.989491131021136 0.3926584654398955 0  -1.005145479529808 0.4045084971870281 0  -1.021252989166279 0.4157348061508868 0  -1.037788823318041 0.4263200821766524 0  -1.054727484927547 0.4362480035360438 0  -1.072042855806261 0.4455032620938663 0  -1.089708236907385 0.454071586912283 0  -1.107696389493551 0.4619397662554103 0  -1.125979577137455 0.4690956679610738 0  -1.144529608488823 0.4755282581474594 0  -1.163317880743913 0.481227618226765 0  -1.182315423748601 0.4861849601988132 0  -1.20149294466851 0.4903926402015986 0  -1.220820873156504 0.4938441702975627 0  -1.240269406947736 0.4965342284774628 0  -1.25980855781281 0.4984586668665699 0  -1.279408197797326 0.4996145181203694 0  -1.318668013555974 0.4996145181203701 0  -1.33826765354026 0.4984586668665892 0  -1.357806804405216 0.4965342284775059 0  -1.377255338196443 0.4938441702976212 0  -1.396583266684433 0.4903926402016728 0  -1.415760787604303 0.4861849601989122 0  -1.434758330608866 0.4812276182269165 0  -1.453546602863697 0.4755282581477182 0  -1.472096634214953 0.4690956679614086 0  -1.490379821858691 0.4619397662558556 0  -1.508367974444819 0.4540715869127957 0  -1.526033355545801 0.4455032620945052 0  -1.54334872642449 0.4362480035367599 0  -1.560287388033943 0.4263200821774683 0  -1.576823222185786 0.4157348061517221 0  -1.592930731822206 0.4045084971879737 0  -1.608585080330867 0.3926584654409306 0  -1.623762129841058 0.3802029828006066 0  -1.638438478442393 0.3671612547185227 0  -1.65259149626927 0.3535533905939355 0  -1.666199360393926 0.3394003727670928 0  -1.679241088476203 0.3247240241656421 0  -1.691696571116591 0.3095469746554744 0  -1.703546602863742 0.2938926261467731 0  -1.714772911827583 0.2777851165103216 0  -1.725358187853383 0.2612492823584976 0  -1.73528610
[...]
<PointData  Scalars="pressure"> 
<DataArray  type="Float64"  Name="pressure"  format="ascii">1.2018845316454711e-01  0.0000000000000000e+00  0.0000000000000000e+00  1.2018700899782249e-01  7.4804706413591049e-01  -1.5210927129620844e-01  4.0214378009133522e-02  -1.5210791334513946e-01  4.2752069916620777e-01  -6.7345522057499374e-01  -4.0843117309055027e-01  -4.9542983166817089e-01  4.2751723770945776e-01  -4.9578981552297569e-01  -4.0843257564250468e-01  -6.7341672502619121e-01  1.1921200801804864e-01  1.1597401643208825e-01  1.0891417936163146e-01  1.0060101493086654e-01  8.8136343413081672e-02  7.2800649827656452e-02  5.4414295113331131e-02  3.2618620226511311e-02  7.8182386769780742e-03  -1.7482455288585896e-02  -4.7700325184208255e-02  -7.1206445597377543e-02  -1.0114107224950072e-01  -1.2097794158641439e-01  -1.5412471315492446e-01  -1.6129795863304500e-01  -1.7831395395299698e-01  -1.8828480653307303e-01  -1.9204495363516150e-01  -1.9238645705676205e-01  -1.8759929150890675e-01  -1.7818276067264988e-01  -1.6744843223613015e-01  -1.5012566185407181e-01  -1.3384760751651309e-01  -1.1822382383205071e-01  -1.0155736458589099e-01  -8.6383936645765644e-02  -7.1570742006206861e-02  -6.0726094269983724e-02  -4.7469622523949873e-02  -3.9958509400728884e-02  -3.1921745707518046e-02  -2.4122161811552079e-02  -2.0147096178914393e-02  -1.4838854823668724e-02  -1.2005347297693900e-02  -8.8566946049365713e-03  -6.9660208636876707e-03  -5.1282956811851002e-03  -3.6889040236768723e-03  -3.0248813767488462e-03  -2.0047450786253511e-03  -1.6513744201188377e-03  -1.1550414011227267e-03  -8.7821941610182570e-04  -6.2750740386910322e-04  -4.1957568089921840e-04  -3.3329908613269663e-04  -9.9987278572571698e-05  -1.1365467066441024e-04  0.0000000000000000e+00  0.0000000000000000e+00  0.0000000000000000e+00  0.0000000000000000e+00  0.0000000000000000e+00  0.0000000000000000e+00  0.0000000000000000e+00  0.0000000000000000e+00  0.0000000000000000e+00  0.0000000000000000e+00  0.0000000000000000e+00  0.0000000000000000e+00  0.0000000000000000e+00  0.0000000000000000e+00  0.0000000000000000e+00  0.0000000000000000e+00  0.0000000000000000e+00  0.0000000000000000e+00  0.0000000000000000e+00  0.0000000000000000e+00  0.0000000000000000e+00  0.0000000000000000e+00  0.0000000000000000e+00  -8.9322922071603190e-05  -1.7766499823164563e-04  -2.8623996011626572e-04  -4.7809446293394192e-04  -5.4684981451805930e-04  -9.5756238269491018e-04  -1.0701942060157938e-03  -1.5772020651678444e-03  -2.3215327198176103e-03  -2.6369993935179527e-03  -3.9441562516030430e-03  -5.2144684215652661e-03  -6.8687438389960697e-03  -8.8710991001484350e-03  -1.1874861345862310e-02  -1.4639323151156243e-02  -2.0747647385849031e-02  -2.3016520998027926e-02  -3.2711873867120447e-02  -3.8065729274078343e-02  -4.8647133371456763e-02  -6.0097572357693557e-02  -7.3363828828930736e-02  -8.2820643385064660e-02  -1.0363747632274972e-01  -1.1668912698802561e-01  -1.3626735585935790e-01  -1.5020211846880760e-01  -1.6666652377303892e-01  -1.7806821080345511e-01  -1.8851881813628682e-01  -1.9270745011650742e-01  -1.9129857215637874e-01  -1.8979014111707512e-01  -1.7740258971652534e-01  -1.6186405036993906e-01  -1.5033634308097429e-01  -1.2341370311019784e-01  -1.0084274682727352e-01  -7.1183313914964574e-02  -4.7705698722518466e-02  -1.7513389753082857e-02  7.7753105380873409e-03  3.2704296133353829e-02  5.4291462879197408e-02  7.2881270108332674e-02  8.8041709671671881e-02  1.0061891209961249e-01  1.0898871697226464e-01  1.1595999980193993e-01  1.1921236324733124e-01  1.2107708640250722e-01  1.2439149033240246e-01  1.3019140022069703e-01  1.3824407965020752e-01  1.4836697942907021e-01  1.6021324441599416e-01  1.7309705442925824e-01  1.8625491033523267e-01  1.9835250559197254e-01  2.0852219537172498e-01  2.1521605192777354e-01  2.1753018633317922e-01  2.1500304615561913e-01  2.0839310617264811e-01  1.9841959198265269e-01  1.8625810215958322e-01  1.7314945342193863e-01  1.6022145992324396e-01  1.4836823399867030e-01  1.3826875923202417e-01  1.3015413580973417e-01  1.2440225466311326e-01  1.2106340847121157e-01  7.4591141321026944e-01  7.3980705790884227e-01  7.2919880238045209e-01  7.1517437905004178e-01  6.9680796756386976e-01  6.7506987161010323e-01  6.4985028659258015e-01  6.2069691958455020e-01  5.8972878018439856e-01  5.5479449232948153e-01  5.1800953878054745e-01  4.7978758145127459e-01  4.3880818736163651e-01  3.9824489017247805e-01  3.5463239991881124e-01  3.1272198667881990e-01  2.6886753731107332e-01  2.2731081281417254e-01  1.8422003222415737e-01  1.4460999133836200e-01  1.0392684715986206e-01  6.7593550917296893e-02  3.1059432815183030e-02  -7.8539341109970832e-04  -3.2573463552617740e-02  -5.9358032557589140e-02  -8.4451299240543787e-02  -1.0666524730383944e-01  -1.2436822388809413e-01  -1.4009116536317653e-01  -1.5285811756844786e-01  -1.6170917758438014e-01  -1.6837777556205119e-01  -1.7257471273244529e-01  -1.7373895506093553e-01  -1.7276385040416739e-01  -1.7014514881414333e-01  -1.6523054726978004e-01  -1.5954113232164441e-01  -1.4436916104091024e-01  -1.3537260853370195e-01  -1.2665923072215707e-01  -1.1703196783160824e-01  -1.0775882371839465e-01  -9.8330046124556342e-02  -8.9293070447804226e-02  -8.0415145612852304e-02  -7.1988949380308545e-02  -6.3843443946150241e-02  -5.6094480384743302e-02  -4.8673339286286213e-02  -4.1587803286758498e-02  -3.4670969808799745e-02  -2.8020481427804549e-02  -2.1608216733431516e-02  -1.5295820931057030e-02  -9.1882817478323251e-03  -3.3718756695234014e-03  2.1434085087494339e-03  7.2754229813936228e-03  1.1955985194337736e-02  1.6126030269859398e-02  1.9780518223308296e-02  2.2808902642518895e-02  2.5283134294033883e-02  2.7323253064152755e-02  2.8908649051823072e-02  3.0205822830346427e-02  3.1300262412634804e-02  3.2359730186424282e-02  3.3346839889345510e-02  3.4424375662144735e-02  3.5535865340712680e-02  3.6637477443381097e-02  3.7756138795735229e-02  3.8732848658222081e-02  3.9545031013362812e-02  4.0027828237571526e-02  4.0027417493603640e-02  3.9512960102367885e-02  3.8745972553517097e-02  3.7753473833004515e-02  3.6643518416938248e-02  3.5522043207314800e-02  3.4438742149788475e-02  3.3337926197932910e-02  3.2354484460955395e-02  3.1298518050953822e-02  3.0220043569247523e-02  2.8902256323623150e-02  2.7288750507137405e-02  2.5304014027720145e-02  2.2809683101285977e-02  1.9780720007453796e-02  1.6127320722051808e-02  1.1956919424946196e-02  7.2764728286893177e-03  2.1445363993295831e-03  -3.3706486735615498e-03  -9.1869459011821464e-03  -1.5294345441604143e-02  -2.1606709067172464e-02  -2.8018690929267263e-02  -3.4669177472689765e-02  -4.1585919514111259e-02  -4.8670436740030291e-02  -5.6092146261815530e-02  -6.3840938709451442e-02  -7.1986360524139842e-02  -8.0412539606196015e-02  -8.9290404237246851e-02  -9.8327400618899635e-02  -1.0775628981230688e-01  -1.1702958524084733e-01  -1.2665705149372508e-01  -1.3537067814526521e-01  -1.4436750790320349e-01  -1.5954005548970066e-01  -1.6522968360410492e-01  -1.7014438830202891e-01  -1.7276301839149466e-01  -1.7373786355502416e-01  -1.7257332797033642e-01  -1.6837615943600001e-01  -1.6170724868274883e-01  -1.5285546518458942e-01  -1.4008744699538106e-01  -1.2436299500011579e-01  -1.0665811146685156e-01  -8.4442511707070150e-02  -5.9344119084956008e-02  -3.2576916358726220e-02  -7.6610190577048004e-04  3.1008726479747513e-02  6.7777348282646352e-02  1.0391962453020959e-01  1.4452880474171703e-01  1.8445833935337713e-01  2.2653437486238290e-01  2.6970924074510527e-01  3.1246644552713215e-01  3.5508204996780096e-01  3.9781962823885181e-01  4.3876776440198756e-01  4.7999065303214933e-01  5.1769199528725685e-01  5.5515353896699160e-01  5.8885764706093147e-01  6.2066836733380915e-01  6.4993094652227590e-01  6.7490546816149910e-01  6.9717885519332068e-01  7.1527843492521304e-01  7.2952613425214663e-01  7.3963570714770632e-01  7.4600667673165300e-01  4.7167777916751474e-01  5.1166719349096224e-01  5.4234225196935959e-01  5.6731798867051730e-01  5.8137953210394888e-01  5.8630506204855648e-01  5.8062282245568586e-01  5.6544172531486803e-01  5.3967897903240281e-01  5.0530529722565798e-01  4.6173067800175654e-01  4.1229861274164259e-01  3.5459247729042659e-01  2.9361112434886033e-01  2.2733442994832312e-01  1.5761141004589765e-01  8.7243158986525307e-02  1.5169107896803442e-02  -5.7868994397375258e-02  -1.2773791105448462e-01  -1.9728075031932471e-01  -2.6329002599562912e-01  -3.2770482345211926e-01  -3.8551388707125439e-01  -4.4166613904671365e-01  -4.9238997756287933e-01  -5.3624209157203417e-01  -5.7732504822341124e-01  -6.1071346942787474e-01  -6.3998334831985082e-01  -6.6401943666300567e-01  -6.8162549560576025e-01  -6.9473311855381470e-01  -7.0361061751488441e-01  -7.0625880176313793e-01  -7.0688525086833121e-01  -7.0272337621874981e-01  -6.9487660720022104e-01  -6.8599499472276360e-01  -6.6052654809624956e-01  -6.4547785288804638e-01  -6.3011403311666170e-01  -6.1449308427891491e-01  -5.9850925088910245e-01  -5.8331793162638312e-01  -5.6836011930394625e-01  -5.5398134666611942e-01  -5.4058667385786863e-01  -5.2794236287368701e-01  -5.1634448481057560e-01  -5.0590003340054712e-01  -4.9630224170179166e-01  -4.8774662498417887e-01  -4.8011156183010989e-01  -4.7330441575493049e-01  -4.6734288053862660e-01  -4.6224872643731801e-01  -4.5760755636296857e-01  -4.5374292275159145e-01  -4.5011931782790954e-01  -4.4704509006434334e-01  -4.4403083970028034e-01  -4.4137162855272954e-01  -4.3857980252669243e-01  -4.3605165355773773e-01  -4.3329795053296899e-01  -4.3073654431666181e-01  -4.2796977688071797e-01  -4.2539590153836987e-01  -4.2269864998448520e-01  -4.2020254410034302e-01  -4.1780061087093240e-01  -4.1553927163686971e-01  -4.1362808625070885e-01  -4.1187512447337288e-01  -4.1053795166678431e-01  -4.0946563507104428e-01  -4.0878784154163861e-01  -4.0841667010685317e-01  -4.0873196265522288e-01  -4.0933099515260030e-01  -4.1022136113091040e-01  -4.1130210336707740e-01  -4.1265046190421600e-01  -4.1411084627268069e-01  -4.1583333335175177e-01  -4.1765221127585173e-01  -4.1971900657417593e-01  -4.2190976833108151e-01  -4.2435939985950955e-01  -4.2703116975281963e-01  -4.2999638606810953e-01  -4.3323354484037074e-01  -4.3688450667111023e-01  -4.4092778039576636e-01  -4.4534865164911575e-01  -4.5026441083016422e-01  -4.5561914561506689e-01  -4.6139427769428776e-01  -4.6773079340732904e-01  -4.7445932083618808e-01  -4.8163089190699993e-01  -4.8921411714735241e-01  -4.9657441314116524e-01  -5.0444244158331297e-01  -5.1192130559718885e-01  -5.1922543703555302e-01  -5.2554040184906226e-01  -5.3170243072724865e-01  -5.3585478064108083e-01  -5.3878916869765514e-01  -5.3971858155370100e-01  -5.3916041928160630e-01  -5.3498373601294225e-01  -5.2990595223627346e-01  -5.2029284860628289e-01  -5.0955674197306067e-01  -4.7864473727650009e-01  -4.6091824364559825e-01  -4.4000038501203775e-01  -4.1876041999296382e-01  -3.9589671433377599e-01  -3.7304458751748987e-01  -3.5065606498780577e-01  -3.2759460946458846e-01  -3.0667814516756847e-01  -2.8640623146881827e-01  -2.6684942245674675e-01  -2.4995472901109772e-01  -2.3330643073248250e-01  -2.1937127667112746e-01  -2.0659734186519094e-01  -1.9415499889546436e-01  -1.8383472007937804e-01  -1.7410888882971662e-01  -1.6479828670418506e-01  -1.5524545010716828e-01  -1.4690415329301643e-01  -1.3765284588615179e-01  -1.2789201012123816e-01  -1.1678401206832754e-01  -1.0536480680112928e-01  -9.0534220502802382e-02  -7.5012399730087387e-02  -5.5488241475610427e-02  -3.4630844898330571e-02  -8.1850525295139379e-03  2.0380361015175309e-02  5.4233845631729574e-02  9.2250505010034636e-02  1.3307404567119011e-01  1.7912737115050856e-01  2.2687604750133517e-01  2.7725249855466527e-01  3.2869149682356907e-01  3.7888849634092492e-01  3.7888334940702034e-01  3.2868498388803480e-01  2.7724501442198490e-01  2.2686801110700544e-01  1.7911914470406398e-01  1.3306597030736655e-01  9.2242862905910619e-02  5.4226866908280463e-02  2.0374165957420885e-02  -8.1903912366041286e-03  -3.4635279112826121e-02  -5.5491795403146769e-02  -7.5015082637906669e-02  -9.0536208591048217e-02  -1.0536505964373051e-01  -1.1678884944491101e-01  -1.2785611580452003e-01  -1.3765926309374302e-01  -1.4665232206001330e-01  -1.5544639722268766e-01  -1.6476029416012453e-01  -1.7408257589710538e-01  -1.8385139353330601e-01  -1.9414808885766316e-01  -2.0667055242148011e-01  -2.1902566722603214e-01  -2.3388095211316909e-01  -2.4962928752506547e-01  -2.6740682804179483e-01  -2.8596676911105157e-01  -3.0645557748201335e-01  -3.2800360663720390e-01  -3.5058407548799725e-01  -3.7276489055861828e-01  -3.9640710058416673e-01  -4.1820449830687911e-01  -4.4042666196824920e-01  -4.6046700878663555e-01  -4.7901193366922057e-01  -5.0901029176619350e-01  -5.2090525248747899e-01  -5.2913301968592696e-01  -5.3589568289223977e-01  -5.3864776025269712e-01  -5.3994026359237746e-01  -5.3882023690517433e-01  -5.3597689484021560e-01  -5.3170899874173294e-01  -5.2550716144808451e-01  -5.1943200638899190e-01  -5.1192403551071208e-01  -5.0443957717707333e-01  -4.9670171752832948e-01  -4.8930469374155483e-01  -4.8162539677191241e-01  -4.7452707457945731e-01  -4.6781784678559762e-01  -4.6147369021753243e-01  -4.5565238584405038e-01  -4.5030950959327737e-01  -4.4533733426111721e-01  -4.4095795665318749e-01  -4.3690141444597408e-01  -4.3328313940950369e-01  -4.3004200236590268e-01  -4.2703826957433189e-01  -4.2440172272009702e-01  -4.2194593805673214e-01  -4.1973969463888655e-01  -4.1768506291411800e-01  -4.1581730298120512e-01  -4.1417727586752823e-01  -4.1263511852894175e-01  -4.1135086819038885e-01  -4.1022108447766381e-01  -4.0936126980042736e-01  -4.0873320146550646e-01  -4.0841802993500648e-01  -4.0878481796022753e-01  -4.0945686529878295e-01  -4.1052374555439752e-01  -4.1185586206078084e-01  -4.1360386087732520e-01  -4.1551093993070198e-01  -4.1776854438077532e-01  -4.2016767446608833e-01  -4.2266176704565983e-01  -4.2535763610797084e-01  -4.2793121693495667e-01  -4.3069815093711261e-01  -4.3325998755170125e-01  -4.3601378283523445e-01  -4.3855114787506677e-01  -4.4134304921262363e-01  -4.4398437060588747e-01  -4.4702765152939344e-01  -4.5008903893503921e-01  -4.5371932443230706e-01  -4.5758459024860859e-01  -4.6222570968320092e-01  -4.6731977922509582e-01  -4.7328097630954175e-01  -4.8008743356488442e-01  -4.8772157211639777e-01  -4.9627613477531440e-01  -5.0587272380555881e-01  -5.1631595936084462e-01  -5.2791257394858515e-01  -5.4055561329069068e-01  -5.5394904339433748e-01  -5.6832662588251204e-01  -5.8328326374747608e-01  -5.9847360339524314e-01  -6.1445647446688978e-01  -6.3007667763139197e-01  -6.4543990620380431e-01  -6.6048818280104749e-01  -6.8595652536821650e-01  -6.9483849548515886e-01  -7.0268577745825533e-01  -7.0684842820794325e-01  -7.0622299960569423e-01  -7.0357594547808733e-01  -6.9469978702892921e-01  -6.8159357423174316e-01  -6.6398898219320879e-01  -6.3995440113909807e-01  -6.1068596127571395e-01  -5.7729890480314128e-01  -5.3621722756999679e-01  -4.9236621793851026e-01  -4.4164330760668319e-01  -3.8549216505324546e-01  -3.2768227903172847e-01  -2.6327536082429193e-01  -1.9723323795726816e-01  -1.2775111490056637e-01  -5.8002797209459112e-02  1.5461833227658492e-02  8.5984422219372289e-02  1.5781906792239470e-01  2.2628495449366592e-01  2.9336457608824101e-01  3.5479283994984767e-01  4.1262453962407314e-01  4.6205159818678515e-01  5.0572349606065359e-01  5.3999729317052503e-01  5.6459944502174697e-01  5.8135941200582053e-01  5.8611567590399505e-01  5.8160025421205785e-01  5.6730180518913931e-01  5.4235084155080648e-01  5.1166668545740657e-01  4.7167651234764990e-01  -4.1380643112353094e-01  8.3576415848233346e-02  8.2835369855578586e-02  -2.5381785486910152e-01  8.6091409153491297e-02  8.6082582375565819e-02  -3.9387883698068543e-01  -2.6325165760735603e-01  -2.6359116366959229e-01  -1.1314620762169307e-01  -1.1274831535057547e-01  1.0186413903641296e-01  1.0186889872805054e-01  2.3482318478209260e-01  2.3415728903103436e-01  -4.0307257085995674e-01  -3.7237455011873094e-01  -3.5599139255315193e-01  1.9895526291188068e-01  2.0058986179392066e-01  -6.2905916972712431e-02  -6.2918647786775320e-02  -2.4284090395515012e-01  -2.4280078348345221e-01  1.3885076464863025e-01  1.3885139995575954e-01  -4.0298606029786965e-01  -4.0236948325943217e-01  3.6181554279892114e-01  -4.4019546116879649e-01  7.2935226791497349e-03  -4.5414399008985273e-01  -4.5396804421375964e-01  3.6753627010826007e-01  2.2067356835479890e-02  5.2087929545886105e-02  5.2090791301087985e-02  3.1979570908496097e-02  1.4681959379140441e-01  3.1981720461071277e-02  1.4679531665445866e-01  1.9444622027344380e-01  1.9445529600416550e-01  3.6829038389181090e-01  3.7762777386046859e-01  -2.6563672972371416e-01  -4.7283759290932725e-01  2.2667809411345930e-02  2.4189941216669480e-02  -8.2897251610304992e-02  -2.7754395765105794e-01  -3.8065200087664275e-01  -8.2883825284195745e-02  -2.7751944188808814e-01  -3.8060986921352796e-01  -4.1802535867456392e-01  -4.1818206408289399e-01  -4.1197497130267985e-01  -4.1191043705762720e-01  -4.2010894839109675e-01  -4.2013460599817337e-01  5.2557988440576264e-01  -6.1612637038085494e-01  -9.6111338844914282e-02  -6.2090111113380630e-01  -9.6789926343258836e-02  -4.3734052850162303e-01  -4.3730732831610497e-01  8.1588888802751849e-02  2.2259968276188709e-02  2.2194093148484577e-02  -2.3102383930766097e-02  -3.0345069430568142e-02  -1.0258152601846376e-02  -1.0257053177702142e-02  1.4675701126640581e-03  1.9144976678277660e-03  -1.4699837619347944e-01  -1.4757709172432659e-01  5.1292599849320733e-02  2.9162308069589787e-01  2.9162100549778958e-01  -3.4021575786397834e-01  -3.4019420636247105e-01  -4.6848665385520538e-01  -4.6918758463664983e-01  4.1693633149373147e-03  -2.9392822752713010e-01  -2.7139752421969798e-01  -2.9133465313079721e-01  -2.6950847104427050e-01  -4.3053849678047079e-01  1.3619306674380086e-03  -4.3828022999081555e-02  -4.3830417505983099e-02  4.0272318234684962e-01  4.0273167337533899e-01  -4.5674260464145272e-01  -4.5671367901745336e-01  -4.5903458724485324e-01  -4.5900810512448054e-01  -1.8113151440798095e-01  -1.8114649641887060e-01  -1.5596185697120082e-02  -1.5193422337022758e-02  -4.1685843776969000e-01  4.1061094163372697e-02  4.1064130392144273e-02  -9.0150627668835456e-02  -8.7461967196245688e-02  4.7217987852290443e-02  2.3585575650269094e-01  2.4267804554330968e-01  5.4318695340540402e-01  1.1781570798663232e-03  -2.8373482921686601e-02  -2.8590564614098778e-02  9.8098384745795159e-02  9.8102918330379985e-02  -4.4493303840922871e-01  -4.4496303242127633e-01  4.4148549250703056e-01  -4.4037334045311455e-01  -4.4035838840710706e-01  6.0598409519279939e-01  -2.1820728377241905e-01  -2.1781116570327222e-01  -4.1893318756610681e-01  -4.1926585841438646e-01  -1.2669316753771243e-02  -1.0438376470414013e-02  4.4372234374375008e-01  -5.9926005912432234e-01  3.9986886637282393e-03  3.9990491982193292e-03  -3.1766849010350184e-01  -3.2053628354845543e-01  3.4248082117301681e-02  3.4051968135279324e-02  -4.1363426541016696e-01  -4.1362521722700130e-01  -3.0694832985127601e-01  -3.0695996237324319e-01  3.4182435506134402e-02  1.7501530686940374e-02  1.6584663842775205e-01  1.6242578161184626e-01  4.6228759736286783e-02  4.6220718479072789e-02  -4.8831837701339020e-01  -4.9424469143440730e-01  -1.0548338199507776e-01  1.1608052534387493e-01  1.1612455862702344e-01  -2.9530069940896059e-01  -3.0186282311471424e-01  -1.9640017733507883e-01  -1.9638390546075007e-01  1.8008014645591233e-01  1.8008565776575397e-01  2.1048475282604923e-02  2.0996231961857757e-02  2.7725639296629778e-01  6.5381689851805169e-01  -4.2643495671814391e-01  -4.2646569742489410e-01  -6.1021092432681634e-01  -6.1341302577600409e-01  -4.3012428119809143e-01  -4.3010148760539113e-01  -1.2316518138552005e-03  -3.3832384056886333e-01  -3.4375214267336379e-01  -3.9775073152779511e-01  -3.9562570663094293e-01  3.2899257036441