<?xml version="1.0"?>
<VTKFile type="UnstructuredGrid"  version="0.1"  >
<UnstructuredGrid>
<Piece  NumberOfPoints="13554" NumberOfCells="26480">
<Points>
<DataArray  type="Float64"  NumberOfComponents="3"  format="ascii">-6 -6 0  20 -6 0  20 6 0  -6 6 0  -1.799038105676658 0 0  -1.299038105676658 -0.5 0  -0.799038105676658 0 0  -1.299038105676658 0.5 0  -0.5 -0.75 0  0 -1.25 0  0.5 -0.75 0  0 -0.25 0  -0.5 0.75 0  0 0.25 0  0.5 0.75 0  0 1.25 0  -5.500000000001825 -6 0  -5.00000000000365 -6 0  -4.500000000005476 -6 0  -4.000000000007301 -6 0  -3.500000000009125 -6 0  -3.00000000001095 -6 0  -2.500000000013202 -6 0  -2.000000000015761 -6 0  -1.50000000001764 -6 0  -1.000000000019466 -6 0  -0.5000000000212914 -6 0  -2.311839608637456e-11 -6 0  0.4999999999750564 -6 0  0.9999999999732312 -6 0  1.499999999971405 -6 0  1.999999999969446 -6 0  2.499999999966127 -6 0  2.999999999962597 -6 0  3.499999999959066 -6 0  3.999999999955534 -6 0  4.499999999952003 -6 0  4.999999999948473 -6 0  5.49999999994494 -6 0  5.999999999941409 -6 0  6.499999999937879 -6 0  6.999999999934694 -6 0  7.49999999993423 -6 0  7.999999999934113 -6 0  8.499999999933999 -6 0  8.999999999933882 -6 0  9.499999999933767 -6 0  9.999999999934184 -6 0  10.49999999993732 -6 0  10.99999999994062 -6 0  11.49999999994392 -6 0  11.99999999994722 -6 0  12.49999999995052 -6 0  12.99999999995381 -6 0  13.49999999995712 -6 0  13.99999999996042 -6 0  14.49999999996371 -6 0  14.99999999996701 -6 0  15.49999999997031 -6 0  15.99999999997361 -6 0  16.49999999997691 -6 0  16.99999999998021 -6 0  17.4999999999835 -6 0  17.99999999998681 -6 0  18.49999999999011 -6 0  18.99999999999341 -6 0  19.4999999999967 -6 0  20 -5.500000000001853 0  20 -5.000000000003705 0  20 -4.500000000005556 0  20 -4.000000000007409 0  20 -3.50000000000926 0  20 -3.000000000011112 0  20 -2.500000000012963 0  20 -2.000000000014814 0  20 -1.500000000016665 0  20 -1.000000000018516 0  20 -0.5000000000203677 0  20 -2.204547655537681e-11 0  20 0.4999999999796305 0  20 0.9999999999814779 0  20 1.499999999983327 0  20 1.999999999985175 0  20 2.499999999987029 0  20 2.999999999988882 0  20 3.499999999990735 0  20 3.999999999992589 0  20 4.49999999999444 0  20 4.999999999996293 0  20 5.499999999998147 0  19.50000000000303 6 0  19.00000000000606 6 0  18.50000000000909 6 0  18.00000000001212 6 0  17.50000000001515 6 0  17.00000000001818 6 0  16.50000000002121 6 0  16.00000000002424 6 0  15.50000000002727 6 0  15.00000000003029 6 0  14.50000000003332 6 0  14.00000000003635 6 0  13.50000000003939 6 0  13.00000000004241 6 0  12.50000000004544 6 0  12.00000000004847 6 0  11.5000000000515 6 0  11.00000000005453 6 0  10.50000000005755 6 0  10.00000000006058 6 0  9.50000000006361 6 0  9.000000000066636 6 0  8.500000000069663 6 0  8.000000000072694 6 0  7.500000000075721 6 0  7.000000000078401 6 0  6.50000000007836 6 0  6.000000000077973 6 0  5.500000000077584 6 0  5.0000000000772 6 0  4.500000000076811 6 0  4.00000000007589 6 0  3.500000000072248 6 0  3.000000000068443 6 0  2.500000000064645 6 0  2.000000000060837 6 0  1.500000000057039 6 0  1.000000000053234 6 0  0.5000000000494325 6 0  4.562750177683483e-11 6 0  -0.4999999999581739 6 0  -0.9999999999619789 6 0  -1.499999999965777 6 0  -1.999999999969585 6 0  -2.499999999973383 6 0  -2.999999999977188 6 0  -3.499999999980989 6 0  -3.999999999984787 6 0  -4.499999999988596 6 0  -4.999999999992394 6 0  -5.499999999996199 6 0  -6 5.500000000001853 0  -6 5.000000000003705 0  -6 4.500000000005556 0  -6 4.000000000007409 0  -6 3.50000000000926 0  -6 3.000000000011112 0  -6 2.500000000012963 0  -6 2.000000000014814 0  -6 1.500000000016665 0  -6 1.000000000018516 0  -6 0.5000000000203677 0  -6 2.204547655537681e-11 0  -6 -0.4999999999796305 0  -6 -0.9999999999814779 0  -6 -1.499999999983327 0  -6 -1.999999999985175 0  -6 -2.499999999987029 0  -6 -2.999999999988882 0  -6 -3.499999999990735 0  -6 -3.999999999992589 0  -6 -4.49999999999444 0  -6 -4.999999999996293 0  -6 -5.499999999998147 0  -1.798652623797024 -0.01962990787940635 0  -1.797496772543235 -0.03922954786375742 0  -1.795572334154145 -0.05876869872871639 0  -1.792882275974263 -0.0782172325198883 0  -1.789430745878327 -0.09754516100779272 0  -1.78522306587557 -0.1167226819276475 0  -1.780265723903582 -0.1357202249321832 0  -1.774566363824363 -0.1545084971870802 0  -1.768133773638067 -0.1730585285382951 0  -1.760977871932502 -0.1913417161820606 0  -1.753109692589439 -0.2093298687681933 0  -1.744541367771138 -0.2269952498691915 0  -1.735286109213394 -0.2443106207478749 0  -1.725358187854079 -0.2612492823573626 0  -1.714772911828365 -0.2777851165091517 0  -1.703546602864618 -0.2938926261455674 0  -1.691696571117556 -0.3095469746542509 0  -1.679241088477271 -0.3247240241643924 0  -1.666199360395112 -0.3394003727658096 0  -1.65259149627058 -0.3535533905926256 0  -1.638438478443802 -0.3671612547172209 0  -1.623762129842412 -0.3802029827994502 0  -1.608585080332201 -0.3926584654398785 0  -1.592930731823511 -0.4045084971870262 0  -1.576823222187039 -0.4157348061508851 0  -1.560287388035277 -0.426320082176651 0  -1.543348726425771 -0.4362480035360425 0  -1.526033355547057 -0.4455032620938652 0  -1.508367974445933 -0.4540715869122821 0  -1.490379821859767 -0.4619397662554095 0  -1.472096634215862 -0.4690956679610732 0  -1.453546602864495 -0.4755282581474589 0  -1.434758330609404 -0.4812276182267646 0  -1.415760787604716 -0.4861849601988129 0  -1.396583266684807 -0.4903926402015984 0  -1.377255338196813 -0.4938441702975626 0  -1.357806804405581 -0.4965342284774627 0  -1.338267653540506 -0.4984586668665699 0  -1.31866801355599 -0.4996145181203694 0  -1.279408197797339 -0.4996145181203699 0  -1.259808557813051 -0.4984586668665888 0  -1.240269406948093 -0.4965342284775051 0  -1.220820873156863 -0.4938441702976197 0  -1.201492944668872 -0.4903926402016704 0  -1.182315423748999 -0.4861849601989088 0  -1.163317880744434 -0.4812276182269119 0  -1.144529608489601 -0.4755282581477123 0  -1.125979577138343 -0.4690956679614011 0  -1.107696389494603 -0.4619397662558464 0  -1.089708236908473 -0.4540715869127846 0  -1.072042855807489 -0.4455032620944922 0  -1.054727484928798 -0.4362480035367446 0  -1.037788823319344 -0.4263200821774507 0  -1.0212529891675 -0.4157348061517021 0  -1.005145479531079 -0.4045084971879511 0  -0.9894911310224221 -0.3926584654409095 0  -0.9743140815122564 -0.380202982800605 0  -0.9596377329108691 -0.3671612547184732 0  -0.9454847150840451 -0.3535533905939346 0  -0.9318768509594187 -0.3394003727671238 0  -0.9188351228771346 -0.324724024165668 0  -0.9063796402367137 -0.3095469746554602 0  -0.894529608489562 -0.2938926261467564 0  -0.8833032995257204 -0.2777851165103025 0  -0.8727180234999081 -0.2612492823584579 0  -0.8627901021405279 -0.2443106207489568 0  -0.8535348435826871 -0.2269952498701913 0  -0.8449665187642977 -0.2093298687691053 0  -0.8370983394211652 -0.1913417161829084 0  -0.8299424377155358 -0.1730585285390712 0  -0.8235098475291767 -0.1545084971877673 0  -0.8178104874498986 -0.1357202249327651 0  -0.8128531454778642 -0.1167226819281381 0  -0.8086454654750708 -0.09754516100820496 0  -0.8051939353791064 -0.07821723252022435 0  -0.8025038771992037 -0.05876869872899349 0  -0.8005794388100933 -0.03922954786391442 0  -0.7994235875562945 -0.01962990787948142 0  -0.7994235875562916 0.0196299078794071 0  -0.8005794388100811 0.03922954786375862 0  -0.802503877199171 0.05876869872871737 0  -0.8051939353790528 0.07821723251988616 0  -0.8086454654749904 0.09754516100780108 0  -0.8128531454777497 0.1167226819276609 0  -0.8178104874497394 0.1357202249322002 0  -0.8235098475289587 0.1545084971870967 0  -0.8299424377152553 0.1730585285383113 0  -0.8370983394208206 0.1913417161820763 0  -0.8449665187638844 0.2093298687682086 0  -0.8535348435821851 0.2269952498692064 0  -0.8627901021399187 0.2443106207478691 0  -0.8727180234992129 0.2612492823573233 0  -0.8833032995249311 0.2777851165091213 0  -0.8945296084886836 0.2938926261455474 0  -0.9063796402357482 0.3095469746542355 0  -0.9188351228760521 0.3247240241644004 0  -0.9318768509581694 0.3394003727657722 0  -0.9454847150827066 0.3535533905925962 0  -0.9596377329094974 0.3671612547172051 0  -0.974314081510931 0.380202982799473 0  -0.989491131021136 0.3926584654398955 0  -1.005145479529808 0.4045084971870281 0  -1.021252989166279 0.4157348061508868 0  -1.037788823318041 0.4263200821766524 0  -1.054727484927547 0.4362480035360438 0  -1.072042855806261 0.4455032620938663 0  -1.089708236907385 0.454071586912283 0  -1.107696389493551 0.4619397662554103 0  -1.125979577137455 0.4690956679610738 0  -1.144529608488823 0.4755282581474594 0  -1.163317880743913 0.481227618226765 0  -1.182315423748601 0.4861849601988132 0  -1.20149294466851 0.4903926402015986 0  -1.220820873156504 0.4938441702975627 0  -1.240269406947736 0.4965342284774628 0  -1.25980855781281 0.4984586668665699 0  -1.279408197797326 0.4996145181203694 0  -1.318668013555974 0.4996145181203701 0  -1.33826765354026 0.4984586668665892 0  -1.357806804405216 0.4965342284775059 0  -1.377255338196443 0.4938441702976212 0  -1.396583266684433 0.4903926402016728 0  -1.415760787604303 0.4861849601989122 0  -1.434758330608866 0.4812276182269165 0  -1.453546602863697 0.4755282581477182 0  -1.472096634214953 0.4690956679614086 0  -1.490379821858691 0.4619397662558556 0  -1.508367974444819 0.4540715869127957 0  -1.526033355545801 0.4455032620945052 0  -1.54334872642449 0.4362480035367599 0  -1.560287388033943 0.4263200821774683 0  -1.576823222185786 0.4157348061517221 0  -1.592930731822206 0.4045084971879737 0  -1.608585080330867 0.3926584654409306 0  -1.623762129841058 0.3802029828006066 0  -1.638438478442393 0.3671612547185227 0  -1.65259149626927 0.3535533905939355 0  -1.666199360393926 0.3394003727670928 0  -1.679241088476203 0.3247240241656421 0  -1.691696571116591 0.3095469746554744 0  -1.703546602863742 0.2938926261467731 0  -1.714772911827583 0.2777851165103216 0  -1.725358187853383 0.2612492823584976 0  -1.73528610
[...]
<PointData  Scalars="pressure"> 
<DataArray  type="Float64"  Name="pressure"  format="ascii">1.2598239020354121e-01  0.0000000000000000e+00  0.0000000000000000e+00  1.2594635327036116e-01  7.5455826930467695e-01  -1.3988857115900544e-01  4.9691628388183647e-02  -1.3988898687723125e-01  4.3065803452493595e-01  -6.3667625064861710e-01  -3.9002536919301278e-01  -4.8001442170257236e-01  4.3051627983964497e-01  -4.8045967082942009e-01  -3.9027590806262763e-01  -6.3696379589660179e-01  1.2498943955130358e-01  1.2169331313574383e-01  1.1449913242583781e-01  1.0601442368617435e-01  9.3267249495488924e-02  7.7539226130247385e-02  5.8580166865154548e-02  3.6011781377963951e-02  1.0091418416361861e-02  -1.6677787713229954e-02  -4.9000510672854949e-02  -7.4868503766433767e-02  -1.0857276340813084e-01  -1.3224538626759011e-01  -1.7223458450391901e-01  -1.8444936040368762e-01  -2.1001584183198158e-01  -2.3070260204554552e-01  -2.4511130498117989e-01  -2.6151405816164025e-01  -2.7351487579225248e-01  -2.8352138913238811e-01  -2.9172830088260376e-01  -2.9768373574967821e-01  -3.0146851697738725e-01  -3.0223698369359064e-01  -2.9817813713248315e-01  -2.9263541963880513e-01  -2.8101936220716689e-01  -2.7046287332560848e-01  -2.4865615783557052e-01  -2.3406948621382043e-01  -2.1269574140944372e-01  -1.8864971217120605e-01  -1.7059028500136247e-01  -1.4732705923182018e-01  -1.3006393515487549e-01  -1.1028311906208657e-01  -9.5395798683306915e-02  -7.9835164340507331e-02  -6.5825388922070793e-02  -5.6143419012938088e-02  -4.4945841119061684e-02  -3.7304918358228044e-02  -2.9834396924792821e-02  -2.3781460901626399e-02  -1.8483989715605571e-02  -1.3472979441003634e-02  -1.0321209748274931e-02  -5.0708261615636579e-03  -3.4174535182721218e-03  0.0000000000000000e+00  0.0000000000000000e+00  0.0000000000000000e+00  0.0000000000000000e+00  0.0000000000000000e+00  0.0000000000000000e+00  0.0000000000000000e+00  0.0000000000000000e+00  0.0000000000000000e+00  0.0000000000000000e+00  0.0000000000000000e+00  0.0000000000000000e+00  0.0000000000000000e+00  0.0000000000000000e+00  0.0000000000000000e+00  0.0000000000000000e+00  0.0000000000000000e+00  0.0000000000000000e+00  0.0000000000000000e+00  0.0000000000000000e+00  0.0000000000000000e+00  0.0000000000000000e+00  0.0000000000000000e+00  -3.0621571695723946e-03  -6.1154124329673241e-03  -9.6904539405998930e-03  -1.4131138466826450e-02  -1.7492121987906648e-02  -2.4489333938760530e-02  -2.9120891164096732e-02  -3.6807285647075930e-02  -4.7063125455792283e-02  -5.3388702484228182e-02  -6.7846591969591211e-02  -8.0023156667946557e-02  -9.4698317639223276e-02  -1.1054824100623067e-01  -1.2859336146713637e-01  -1.4695112409497063e-01  -1.7088626745520541e-01  -1.8985180448214423e-01  -2.1195209493264336e-01  -2.3313068573279308e-01  -2.4952835111246049e-01  -2.7091774521943113e-01  -2.8046046609051856e-01  -2.9384456776358192e-01  -2.9780438658514957e-01  -3.0309812617211795e-01  -3.0144838277759683e-01  -2.9693623389046686e-01  -2.9325462711637662e-01  -2.8292120649244740e-01  -2.7388748798737861e-01  -2.6223821043981765e-01  -2.4419766204598256e-01  -2.3248084979399317e-01  -2.0888763732569027e-01  -1.8512414373779248e-01  -1.6786535807696260e-01  -1.3501448012118336e-01  -1.0824838143780244e-01  -7.4872502482467365e-02  -4.9039287601083205e-02  -1.6750266511400491e-02  1.0008095030910727e-02  3.6056464357035072e-02  5.8416165354263166e-02  7.7581360738300409e-02  9.3131872841720809e-02  1.0599587599648226e-01  1.1453916506707894e-01  1.2164402652403433e-01  1.2495525901749115e-01  1.2685291387527456e-01  1.3022481661790422e-01  1.3612176843824625e-01  1.4430155259517680e-01  1.5457308864722508e-01  1.6657858998093217e-01  1.7961954678266664e-01  1.9292259566685649e-01  2.0514141472108649e-01  2.1540593141017481e-01  2.2215903858281569e-01  2.2449468830305699e-01  2.2194994389510544e-01  2.1528647054651154e-01  2.0522506634706456e-01  1.9294620321939276e-01  1.7969610050158930e-01  1.6661397545191289e-01  1.5460412150348893e-01  1.4435800307536431e-01  1.3611686497137720e-01  1.3026949575963806e-01  1.2687321760169118e-01  7.5243337380421249e-01  7.4635515142689290e-01  7.3579035055025066e-01  7.2182325692670102e-01  7.0353138826947859e-01  6.8188243465041587e-01  6.5676701152429229e-01  6.2773566845068618e-01  5.9689983665898128e-01  5.6211706809168960e-01  5.2549612074366758e-01  4.8744791947852789e-01  4.4665911285486215e-01  4.0629177839041730e-01  3.6289528984972425e-01  3.2120154591329864e-01  2.7757875398572751e-01  2.3625285474217422e-01  1.9340840150557498e-01  1.5403788348364322e-01  1.1360856787406216e-01  7.7516743578669903e-02  4.1231749480447749e-02  9.6217016408794084e-03  -2.1924334917188884e-02  -4.8488422196478746e-02  -7.3362313645140981e-02  -9.5371431058602699e-02  -1.1289073820458587e-01  -1.2844268142838200e-01  -1.4105508168602351e-01  -1.4977742477128894e-01  -1.5633413233701141e-01  -1.6043984137802461e-01  -1.6153855667727446e-01  -1.6051945411120785e-01  -1.5787511193163006e-01  -1.5296060126928507e-01  -1.4728451776777698e-01  -1.3219362331419371e-01  -1.2326168317457088e-01  -1.1461620072389329e-01  -1.0507242665742954e-01  -9.5884226406233841e-02  -8.6547112545195828e-02  -7.7601098157534215e-02  -6.8815857724846621e-02  -6.0478817325747183e-02  -5.2420780782562938e-02  -4.4754325099995759e-02  -3.7411403894928287e-02  -3.0398980005789701e-02  -2.3551168968044801e-02  -1.6966518801162862e-02  -1.0616408395908617e-02  -4.3662698834357931e-03  1.6793749403813123e-03  7.4319987126102655e-03  1.2881739044655850e-02  1.7942432086927283e-02  2.2550325886200692e-02  2.6640663329177094e-02  3.0215327431153467e-02  3.3156978314899707e-02  3.5545035668273106e-02  3.7498666333901316e-02  3.8995684232343564e-02  4.0209556015518066e-02  4.1222804129267515e-02  4.2206993201354660e-02  4.3121901756252162e-02  4.4135982095053011e-02  4.5189281346298391e-02  4.6238835054869566e-02  4.7314598369318166e-02  4.8256614121422486e-02  4.9041571012985417e-02  4.9509186016593452e-02  4.9511634236388206e-02  4.9014350270147715e-02  4.8275244625893915e-02  4.7319825489301567e-02  4.6254591934621808e-02  4.5186243324098652e-02  4.4162704535559913e-02  4.3125447523557764e-02  4.2215683030339436e-02  4.1234338818427696e-02  4.0237816467979706e-02  3.9004487315552644e-02  3.7476006092861183e-02  3.5579211420188765e-02  3.3169035015588377e-02  3.0225826848154676e-02  2.6651055305891298e-02  2.2559102629226883e-02  1.7950285629065858e-02  1.2888664125444770e-02  7.4383461165390659e-03  1.6853480179930950e-03  -4.3603447776705394e-03  -1.0610461885164334e-02  -1.6959985239919338e-02  -2.3544347312730980e-02  -3.0391442099338625e-02  -3.7402453621136353e-02  -4.4745371666706814e-02  -5.2411310617304918e-02  -6.0468922058741569e-02  -6.8805917931084509e-02  -7.7591158341823133e-02  -8.6537617422564148e-02  -9.5875428230693283e-02  -1.0506477177496813e-01  -1.1460991998269476e-01  -1.2325734455583265e-01  -1.3219139392799337e-01  -1.4728774739085823e-01  -1.5296701066288051e-01  -1.5788478695911673e-01  -1.6053256549584294e-01  -1.6155507088986773e-01  -1.6045989897358817e-01  -1.5635792287280667e-01  -1.4980490574875338e-01  -1.4108579955979722e-01  -1.2847629059695595e-01  -1.1292659802257030e-01  -9.5409003751392121e-02  -7.3401603124132492e-02  -4.8525734825120945e-02  -2.1981586498472330e-02  9.5847082453104047e-03  4.1122743170408801e-02  7.7638825898377700e-02  1.1353972596299386e-01  1.5389627643686474e-01  1.9358508077679970e-01  2.3541802255805414e-01  2.7835501941471186e-01  3.2088586143596809e-01  3.6328421227101759e-01  4.0581274351057689e-01  4.4656493622226939e-01  4.8759870854716320e-01  5.2513074665001802e-01  5.6242988152926010e-01  5.9599135310212348e-01  6.2766982637069180e-01  6.5681392835299246e-01  6.8168939119561300e-01  7.0387637741407949e-01  7.2190685832935375e-01  7.3610160001102087e-01  7.4617429376925060e-01  7.5252335857397135e-01  4.7447569242340770e-01  5.1426631012297075e-01  5.4495203794157965e-01  5.7006377347726656e-01  5.8445842620873623e-01  5.8985174629596648e-01  5.8480146578518388e-01  5.7035467298247555e-01  5.4546457065018261e-01  5.1203697692618011e-01  4.6951065016800375e-01  4.2116289190969669e-01  3.6463141597058452e-01  3.0483707934366827e-01  2.3980430525934690e-01  1.7136992489996747e-01  1.0229759377576128e-01  3.1555539802991230e-02  -4.0107287156868163e-02  -1.0862419697940014e-01  -1.7678527980779465e-01  -2.4142312841076569e-01  -3.0443325600838717e-01  -3.6090205786103896e-01  -4.1569056483052585e-01  -4.6507221427011497e-01  -5.0767296815600371e-01  -5.4750895312225545e-01  -5.7975337595633492e-01  -6.0794081800255684e-01  -6.3096491085139728e-01  -6.4768196092854979e-01  -6.6000123739361949e-01  -6.6818644536555882e-01  -6.7031477425120700e-01  -6.7049546975567997e-01  -6.6604661818301203e-01  -6.5806228761199337e-01  -6.4911424081274827e-01  -6.2390936997972846e-01  -6.0915523729662324e-01  -5.9414696327490868e-01  -5.7894117584083205e-01  -5.6344838394238839e-01  -5.4874564619740995e-01  -5.3433564870438544e-01  -5.2049905026692322e-01  -5.0764656177935785e-01  -4.9553608135412569e-01  -4.8444718950732452e-01  -4.7446688940975901e-01  -4.6530613643141355e-01  -4.5711790246359918e-01  -4.4979295296351129e-01  -4.4321892938574098e-01  -4.3740323746518656e-01  -4.3236811459550190e-01  -4.2771511037522553e-01  -4.2376494054481001e-01  -4.2002106726425587e-01  -4.1679673232001213e-01  -4.1365449196896847e-01  -4.1088508188783240e-01  -4.0807985745671926e-01  -4.0560266633608960e-01  -4.0305048174979713e-01  -4.0078362139640589e-01  -3.9849482541618036e-01  -3.9649408432546568e-01  -3.9455670584719310e-01  -3.9291914251484966e-01  -3.9148565765293297e-01  -3.9031455193489539e-01  -3.8950106626022724e-01  -3.8894754812596954e-01  -3.8876100799731944e-01  -3.8887418559967307e-01  -3.8929888733529361e-01  -3.9097794889437931e-01  -3.9221710085594091e-01  -3.9359055610073623e-01  -3.9520289093314115e-01  -3.9685773058587265e-01  -3.9871927725017786e-01  -4.0055442533470687e-01  -4.0258523801857093e-01  -4.0459915273472608e-01  -4.0679829085783326e-01  -4.0903258357704780e-01  -4.1147750142941047e-01  -4.1408868288893336e-01  -4.1695547516769843e-01  -4.2007418600125790e-01  -4.2359104775128620e-01  -4.2749743201816037e-01  -4.3178827192574987e-01  -4.3658364971652253e-01  -4.4183006018858212e-01  -4.4750672852069523e-01  -4.5375071262999178e-01  -4.6038781478934454e-01  -4.6746621918955500e-01  -4.7495059971804121e-01  -4.8220524576428780e-01  -4.8995784473883380e-01  -4.9731219940613502e-01  -5.0448588706414943e-01  -5.1066861208761460e-01  -5.1669382601923575e-01  -5.2072013228195668e-01  -5.2353631688474744e-01  -5.2436290145041531e-01  -5.2371861151159049e-01  -5.1949031791815281e-01  -5.1437615560618333e-01  -5.0477452425609282e-01  -4.9407001908207387e-01  -4.6333462814672732e-01  -4.4573047467223742e-01  -4.2497302582264718e-01  -4.0390032145807159e-01  -3.8122547051579797e-01  -3.5856310179479367e-01  -3.3636068127134788e-01  -3.1349190361284290e-01  -2.9274652159508624e-01  -2.7263560656522290e-01  -2.5323728667054651e-01  -2.3647195540956589e-01  -2.1995360879687054e-01  -2.0612337306236048e-01  -1.9344529178033629e-01  -1.8110499074014794e-01  -1.7086956847743529e-01  -1.6123078216867651e-01  -1.5201443649294036e-01  -1.4257273093870829e-01  -1.3433891451682675e-01  -1.2522273156658117e-01  -1.1562143418639539e-01  -1.0471126798456577e-01  -9.3511327550726317e-02  -7.8971061791711150e-02  -6.3768853876966111e-02  -4.4644395649439769e-02  -2.4225166770726253e-02  1.6846534857659237e-03  2.9673128734500759e-02  6.2868399586456750e-02  1.0016691416014854e-01  1.4025089424676049e-01  1.8552486905698135e-01  2.3251326992195853e-01  2.8214491350661236e-01  3.3289805944420675e-01  3.8250487454259019e-01  3.8237003381831702e-01  3.3277280242398044e-01  2.8203210127447548e-01  2.3241512950756929e-01  1.8544284757443139e-01  1.4018669303835957e-01  1.0012061155556938e-01  6.2840675593070924e-02  2.9663229883457997e-02  1.6913104214544901e-03  -2.4202429072578850e-02  -4.4607707442773890e-02  -6.3719009771171592e-02  -7.8910200772470976e-02  -9.3439211275009079e-02  -1.0463605433296176e-01  -1.1549921959008812e-01  -1.2513726538151559e-01  -1.3399416857949448e-01  -1.4267051393006702e-01  -1.5187409355167930e-01  -1.6110040873406356e-01  -1.7078076402820994e-01  -1.8099323459679773e-01  -1.9341428946476918e-01  -2.0568038999467753e-01  -2.2042404292488138e-01  -2.3605770574015950e-01  -2.5370276910870770e-01  -2.7212491812512529e-01  -2.9245761196395581e-01  -3.1383942375581941e-01  -3.3624653400126148e-01  -3.5825725059694447e-01  -3.8171871098105942e-01  -4.0335605319952533e-01  -4.2541950596996331e-01  -4.4532840746249802e-01  -4.6376469423894889e-01  -4.9363930734546857e-01  -5.0551602131974871e-01  -5.1376539010866096e-01  -5.2057209930097847e-01  -5.2340847358477993e-01  -5.2480082784587256e-01  -5.2380259169497667e-01  -5.2109242188422900e-01  -5.1696591004506376e-01  -5.1091179463150993e-01  -5.0497755507163544e-01  -4.9760748549270117e-01  -4.9025234900985165e-01  -4.8263223250061810e-01  -4.7534240417766338e-01  -4.6776104503720245e-01  -4.6075485036842090e-01  -4.5413247153052011e-01  -4.4787706480163814e-01  -4.4214910881503938e-01  -4.3691117457723772e-01  -4.3205383513485113e-01  -4.2779709363426188e-01  -4.2387065807965568e-01  -4.2037916042931656e-01  -4.1725839910101858e-01  -4.1434132394848394e-01  -4.1176492223357969e-01  -4.0931960111878840e-01  -4.0705836589545041e-01  -4.0487501695574007e-01  -4.0280064647522063e-01  -4.0087408230041771e-01  -3.9892343787558365e-01  -3.9716912766919671e-01  -3.9542783782985341e-01  -3.9387070875672309e-01  -3.9246217241210873e-01  -3.9122377805158459e-01  -3.8954636258372516e-01  -3.8911858215653605e-01  -3.8900283833320498e-01  -3.8918709619807995e-01  -3.8973873570245371e-01  -3.9055089590700837e-01  -3.9172117165310177e-01  -3.9315439990315060e-01  -3.9479217765857155e-01  -3.9673011014931381e-01  -3.9873182047184369e-01  -4.0102186861720696e-01  -4.0328885833769540e-01  -4.0584109172099814e-01  -4.0832711259232313e-01  -4.1113127708519442e-01  -4.1388326781883689e-01  -4.1704948021829985e-01  -4.2026314883618238e-01  -4.2401225160877204e-01  -4.2796234450514947e-01  -4.3261550838450813e-01  -4.3765120978372624e-01  -4.4346783503200732e-01  -4.5004302232431781e-01  -4.5736936994228466e-01  -4.6555923514364483e-01  -4.7472188105175128e-01  -4.8470425901588332e-01  -4.9579547675060787e-01  -5.0790848396275645e-01  -5.2076363848506868e-01  -5.3460307719830424e-01  -5.4901601188104909e-01  -5.6372172166308510e-01  -5.7921759731659395e-01  -5.9442638119016100e-01  -6.0943756661822279e-01  -6.2419451257935277e-01  -6.4940404282603892e-01  -6.5835368549756224e-01  -6.6633934926580174e-01  -6.7078883261313027e-01  -6.7060791174815793e-01  -6.6847890626454831e-01  -6.6029194420592019e-01  -6.4797013683596183e-01  -6.3124971430487331e-01  -6.0822116723695918e-01  -5.8002837899735582e-01  -5.4777781058671837e-01  -5.0793449295960291e-01  -4.6532586509544543e-01  -4.1593516763616395e-01  -3.6113728417888824e-01  -3.0465715362812662e-01  -2.4164350082120353e-01  -1.7696233053830729e-01  -1.0885003320447229e-01  -4.0441393643894964e-02  3.1655842242066287e-02  1.0088108264312425e-01  1.7140855652768114e-01  2.3861505074583414e-01  3.0444001661785414e-01  3.6467946799347040e-01  4.2133596166430337e-01  4.6968524489599089e-01  5.1230742140543306e-01  5.4563993236827346e-01  5.6938601444798931e-01  5.8537828242873857e-01  5.8952230524169602e-01  5.8452666079041105e-01  5.6989945475167569e-01  5.4481127042188904e-01  5.1411768436002803e-01  4.7433019032001705e-01  -3.2194071244623779e-01  8.9807015874678306e-02  8.9106741663995945e-02  -3.2752765310493714e-01  9.4691536732130224e-02  9.4753797663484490e-02  -3.7958388971558266e-01  -2.7582599275088376e-01  -2.7589007142671701e-01  -1.1076706282684476e-01  -1.1062163422488656e-01  1.1166960026974206e-01  1.1158530323080317e-01  2.4209746627385811e-01  2.4140321673698964e-01  -3.9660151227469476e-01  -3.6490894602726598e-01  -3.6158197094546568e-01  2.0735384861168435e-01  2.0893825504014904e-01  -5.1006088879628680e-02  -5.0892128060524421e-02  -2.2919858829475365e-01  -2.2930514424644180e-01  1.4762103084787262e-01  1.4753429874808999e-01  -3.9458093761075907e-01  -3.9438998838992062e-01  3.6940117468590544e-01  -4.2738432133970550e-01  1.6128619883558418e-02  -3.9810601327859663e-01  -3.9836069537055746e-01  3.7516670989887413e-01  -1.0585434906019862e-01  6.1597501069989916e-02  6.1638783696203008e-02  4.2139282151895774e-02  1.5593842163071059e-01  4.2091704692069090e-02  1.5586835837355517e-01  2.0436484867397126e-01  2.0424058875008300e-01  3.7615473522196197e-01  3.8548787411232044e-01  -2.5366919313304964e-01  -4.5850675018912490e-01  3.2241127936737418e-02  3.3742854895651604e-02  -6.7904396555688487e-02  -2.5879306934590424e-01  -3.5437342639083824e-01  -6.8061772118880898e-02  -2.5895835181951238e-01  -3.5457128249534869e-01  -4.0612693642858066e-01  -4.0645957350981787e-01  -4.0034875196358638e-01  -4.0011046396362104e-01  -3.9610375009018656e-01  -3.9586650259736178e-01  5.3288642037088974e-01  -3.1047909459701406e-01  -3.8594450888609222e-01  -3.1011268485859766e-01  -3.8408938857696950e-01  -4.0344850327697829e-01  -4.0369864727891036e-01  -4.9469904109813612e-01  3.2374072674268298e-02  3.2321920674990498e-02  -4.6110966793134994e-01  -4.5694720897262492e-01  4.1706162176953900e-04  4.0508920270612594e-04  -3.4248878308521097e-01  -3.4684385309671845e-01  -1.3625162246067138e-01  -1.3678005716703376e-01  6.0795228607784087e-02  2.9748381053498724e-01  2.9735869082125616e-01  -3.1839237279953003e-01  -3.1859521512835481e-01  -4.5445447795481547e-01  -4.5534881899657154e-01  -4.9241219680190129e-01  -3.3860632344229108e-01  -2.9730881935088149e-01  -3.3968708692801097e-01  -2.9649776419274709e-01  -4.1631953329634719e-01  1.1545237763687530e-02  -3.2701611986423795e-02  -3.2692479859351919e-02  4.0924978922805366e-01  4.0912129422844024e-01  -4.2949062842141245e-01  -4.2971931898109200e-01  -4.2936061674262266e-01  -4.2960391126438063e-01  -3.2408908838021661e-01  -3.2442733499304383e-01  -5.0482613926134297e-03  -4.6887296914063801e-03  -4.0275382123683845e-01  5.0465712066772736e-02  5.0479474984987761e-02  -7.9455974081375641e-02  -7.6752968506109034e-02  5.6825755363454848e-02  2.4454318061389624e-01  2.5128004402567433e-01  5.5046345454882972e-01  -1.7066755874695833e-02  -1.8000912856110118e-02  -1.8246517466546128e-02  1.1095902753778437e-01  1.1079673304629427e-01  -4.3116130137930170e-01  -4.3145395601439201e-01  4.4915874270873518e-01  -4.1201896276428635e-01  -4.1226179446224209e-01  6.1301906638318393e-01  -2.2208834737867769e-01  -2.2227446777530771e-01  -4.0578708530136348e-01  -4.0625696688134683e-01  -6.1061822921081267e-03  -4.0018069726714756e-03  4.5142228253813277e-01  -2.9405591147813975e-01  1.4554052464218661e-02  1.4557066339398092e-02  -3.0362441743534058e-01  -3.0590798527642499e-01  4.4103155387495124e-02  4.3900040733486571e-02  -3.9639422754163683e-01  -3.9614423619596900e-01  -2.9389558196663434e-01  -2.9387916949212933e-01  4.3321896348453695e-02  2.6641844652841716e-02  1.7316272148888126e-01  1.6968446279907692e-01  5.7151367869518042e-02  5.7261048777272124e-02  -4.7366042475278686e-01  -4.7954919217374514e-01  -9.5731018757027497e-02  1.2533916401348913e-01  1.2532172247924930e-01  -3.1893764420680221e-01  -3.1889664304290777e-01  -1.7751003506479657e-01  -1.7770705094825101e-01  1.8689758003272519e-01  1.8698292943479389e-01  3.1227818570912249e-02  3.1132101373066524e-02  2.8458482549045505e-01  6.6068523901881615e-01  -3.9867361973492615e-01  -3.9843316693832148e-01  -3.1498819964534436e-01  -3.1477783428640382e-01  -4.0512645964831789e-01  -4.0535989482596829e-01  -8.7782353008397915e-02  -2.9866489675915808e-01  -2.9927369042121038e-01  -3.6836140266065609e-01  -3.6698309620047148e-01  3.3816055645976917e