<?xml version="1.0"?>
<VTKFile type="UnstructuredGrid"  version="0.1"  >
<UnstructuredGrid>
<Piece  NumberOfPoints="13554" NumberOfCells="26480">
<Points>
<DataArray  type="Float64"  NumberOfComponents="3"  format="ascii">-6 -6 0  20 -6 0  20 6 0  -6 6 0  -1.799038105676658 0 0  -1.299038105676658 -0.5 0  -0.799038105676658 0 0  -1.299038105676658 0.5 0  -0.5 -0.75 0  0 -1.25 0  0.5 -0.75 0  0 -0.25 0  -0.5 0.75 0  0 0.25 0  0.5 0.75 0  0 1.25 0  -5.500000000001825 -6 0  -5.00000000000365 -6 0  -4.500000000005476 -6 0  -4.000000000007301 -6 0  -3.500000000009125 -6 0  -3.00000000001095 -6 0  -2.500000000013202 -6 0  -2.000000000015761 -6 0  -1.50000000001764 -6 0  -1.000000000019466 -6 0  -0.5000000000212914 -6 0  -2.311839608637456e-11 -6 0  0.4999999999750564 -6 0  0.9999999999732312 -6 0  1.499999999971405 -6 0  1.999999999969446 -6 0  2.499999999966127 -6 0  2.999999999962597 -6 0  3.499999999959066 -6 0  3.999999999955534 -6 0  4.499999999952003 -6 0  4.999999999948473 -6 0  5.49999999994494 -6 0  5.999999999941409 -6 0  6.499999999937879 -6 0  6.999999999934694 -6 0  7.49999999993423 -6 0  7.999999999934113 -6 0  8.499999999933999 -6 0  8.999999999933882 -6 0  9.499999999933767 -6 0  9.999999999934184 -6 0  10.49999999993732 -6 0  10.99999999994062 -6 0  11.49999999994392 -6 0  11.99999999994722 -6 0  12.49999999995052 -6 0  12.99999999995381 -6 0  13.49999999995712 -6 0  13.99999999996042 -6 0  14.49999999996371 -6 0  14.99999999996701 -6 0  15.49999999997031 -6 0  15.99999999997361 -6 0  16.49999999997691 -6 0  16.99999999998021 -6 0  17.4999999999835 -6 0  17.99999999998681 -6 0  18.49999999999011 -6 0  18.99999999999341 -6 0  19.4999999999967 -6 0  20 -5.500000000001853 0  20 -5.000000000003705 0  20 -4.500000000005556 0  20 -4.000000000007409 0  20 -3.50000000000926 0  20 -3.000000000011112 0  20 -2.500000000012963 0  20 -2.000000000014814 0  20 -1.500000000016665 0  20 -1.000000000018516 0  20 -0.5000000000203677 0  20 -2.204547655537681e-11 0  20 0.4999999999796305 0  20 0.9999999999814779 0  20 1.499999999983327 0  20 1.999999999985175 0  20 2.499999999987029 0  20 2.999999999988882 0  20 3.499999999990735 0  20 3.999999999992589 0  20 4.49999999999444 0  20 4.999999999996293 0  20 5.499999999998147 0  19.50000000000303 6 0  19.00000000000606 6 0  18.50000000000909 6 0  18.00000000001212 6 0  17.50000000001515 6 0  17.00000000001818 6 0  16.50000000002121 6 0  16.00000000002424 6 0  15.50000000002727 6 0  15.00000000003029 6 0  14.50000000003332 6 0  14.00000000003635 6 0  13.50000000003939 6 0  13.00000000004241 6 0  12.50000000004544 6 0  12.00000000004847 6 0  11.5000000000515 6 0  11.00000000005453 6 0  10.50000000005755 6 0  10.00000000006058 6 0  9.50000000006361 6 0  9.000000000066636 6 0  8.500000000069663 6 0  8.000000000072694 6 0  7.500000000075721 6 0  7.000000000078401 6 0  6.50000000007836 6 0  6.000000000077973 6 0  5.500000000077584 6 0  5.0000000000772 6 0  4.500000000076811 6 0  4.00000000007589 6 0  3.500000000072248 6 0  3.000000000068443 6 0  2.500000000064645 6 0  2.000000000060837 6 0  1.500000000057039 6 0  1.000000000053234 6 0  0.5000000000494325 6 0  4.562750177683483e-11 6 0  -0.4999999999581739 6 0  -0.9999999999619789 6 0  -1.499999999965777 6 0  -1.999999999969585 6 0  -2.499999999973383 6 0  -2.999999999977188 6 0  -3.499999999980989 6 0  -3.999999999984787 6 0  -4.499999999988596 6 0  -4.999999999992394 6 0  -5.499999999996199 6 0  -6 5.500000000001853 0  -6 5.000000000003705 0  -6 4.500000000005556 0  -6 4.000000000007409 0  -6 3.50000000000926 0  -6 3.000000000011112 0  -6 2.500000000012963 0  -6 2.000000000014814 0  -6 1.500000000016665 0  -6 1.000000000018516 0  -6 0.5000000000203677 0  -6 2.204547655537681e-11 0  -6 -0.4999999999796305 0  -6 -0.9999999999814779 0  -6 -1.499999999983327 0  -6 -1.999999999985175 0  -6 -2.499999999987029 0  -6 -2.999999999988882 0  -6 -3.499999999990735 0  -6 -3.999999999992589 0  -6 -4.49999999999444 0  -6 -4.999999999996293 0  -6 -5.499999999998147 0  -1.798652623797024 -0.01962990787940635 0  -1.797496772543235 -0.03922954786375742 0  -1.795572334154145 -0.05876869872871639 0  -1.792882275974263 -0.0782172325198883 0  -1.789430745878327 -0.09754516100779272 0  -1.78522306587557 -0.1167226819276475 0  -1.780265723903582 -0.1357202249321832 0  -1.774566363824363 -0.1545084971870802 0  -1.768133773638067 -0.1730585285382951 0  -1.760977871932502 -0.1913417161820606 0  -1.753109692589439 -0.2093298687681933 0  -1.744541367771138 -0.2269952498691915 0  -1.735286109213394 -0.2443106207478749 0  -1.725358187854079 -0.2612492823573626 0  -1.714772911828365 -0.2777851165091517 0  -1.703546602864618 -0.2938926261455674 0  -1.691696571117556 -0.3095469746542509 0  -1.679241088477271 -0.3247240241643924 0  -1.666199360395112 -0.3394003727658096 0  -1.65259149627058 -0.3535533905926256 0  -1.638438478443802 -0.3671612547172209 0  -1.623762129842412 -0.3802029827994502 0  -1.608585080332201 -0.3926584654398785 0  -1.592930731823511 -0.4045084971870262 0  -1.576823222187039 -0.4157348061508851 0  -1.560287388035277 -0.426320082176651 0  -1.543348726425771 -0.4362480035360425 0  -1.526033355547057 -0.4455032620938652 0  -1.508367974445933 -0.4540715869122821 0  -1.490379821859767 -0.4619397662554095 0  -1.472096634215862 -0.4690956679610732 0  -1.453546602864495 -0.4755282581474589 0  -1.434758330609404 -0.4812276182267646 0  -1.415760787604716 -0.4861849601988129 0  -1.396583266684807 -0.4903926402015984 0  -1.377255338196813 -0.4938441702975626 0  -1.357806804405581 -0.4965342284774627 0  -1.338267653540506 -0.4984586668665699 0  -1.31866801355599 -0.4996145181203694 0  -1.279408197797339 -0.4996145181203699 0  -1.259808557813051 -0.4984586668665888 0  -1.240269406948093 -0.4965342284775051 0  -1.220820873156863 -0.4938441702976197 0  -1.201492944668872 -0.4903926402016704 0  -1.182315423748999 -0.4861849601989088 0  -1.163317880744434 -0.4812276182269119 0  -1.144529608489601 -0.4755282581477123 0  -1.125979577138343 -0.4690956679614011 0  -1.107696389494603 -0.4619397662558464 0  -1.089708236908473 -0.4540715869127846 0  -1.072042855807489 -0.4455032620944922 0  -1.054727484928798 -0.4362480035367446 0  -1.037788823319344 -0.4263200821774507 0  -1.0212529891675 -0.4157348061517021 0  -1.005145479531079 -0.4045084971879511 0  -0.9894911310224221 -0.3926584654409095 0  -0.9743140815122564 -0.380202982800605 0  -0.9596377329108691 -0.3671612547184732 0  -0.9454847150840451 -0.3535533905939346 0  -0.9318768509594187 -0.3394003727671238 0  -0.9188351228771346 -0.324724024165668 0  -0.9063796402367137 -0.3095469746554602 0  -0.894529608489562 -0.2938926261467564 0  -0.8833032995257204 -0.2777851165103025 0  -0.8727180234999081 -0.2612492823584579 0  -0.8627901021405279 -0.2443106207489568 0  -0.8535348435826871 -0.2269952498701913 0  -0.8449665187642977 -0.2093298687691053 0  -0.8370983394211652 -0.1913417161829084 0  -0.8299424377155358 -0.1730585285390712 0  -0.8235098475291767 -0.1545084971877673 0  -0.8178104874498986 -0.1357202249327651 0  -0.8128531454778642 -0.1167226819281381 0  -0.8086454654750708 -0.09754516100820496 0  -0.8051939353791064 -0.07821723252022435 0  -0.8025038771992037 -0.05876869872899349 0  -0.8005794388100933 -0.03922954786391442 0  -0.7994235875562945 -0.01962990787948142 0  -0.7994235875562916 0.0196299078794071 0  -0.8005794388100811 0.03922954786375862 0  -0.802503877199171 0.05876869872871737 0  -0.8051939353790528 0.07821723251988616 0  -0.8086454654749904 0.09754516100780108 0  -0.8128531454777497 0.1167226819276609 0  -0.8178104874497394 0.1357202249322002 0  -0.8235098475289587 0.1545084971870967 0  -0.8299424377152553 0.1730585285383113 0  -0.8370983394208206 0.1913417161820763 0  -0.8449665187638844 0.2093298687682086 0  -0.8535348435821851 0.2269952498692064 0  -0.8627901021399187 0.2443106207478691 0  -0.8727180234992129 0.2612492823573233 0  -0.8833032995249311 0.2777851165091213 0  -0.8945296084886836 0.2938926261455474 0  -0.9063796402357482 0.3095469746542355 0  -0.9188351228760521 0.3247240241644004 0  -0.9318768509581694 0.3394003727657722 0  -0.9454847150827066 0.3535533905925962 0  -0.9596377329094974 0.3671612547172051 0  -0.974314081510931 0.380202982799473 0  -0.989491131021136 0.3926584654398955 0  -1.005145479529808 0.4045084971870281 0  -1.021252989166279 0.4157348061508868 0  -1.037788823318041 0.4263200821766524 0  -1.054727484927547 0.4362480035360438 0  -1.072042855806261 0.4455032620938663 0  -1.089708236907385 0.454071586912283 0  -1.107696389493551 0.4619397662554103 0  -1.125979577137455 0.4690956679610738 0  -1.144529608488823 0.4755282581474594 0  -1.163317880743913 0.481227618226765 0  -1.182315423748601 0.4861849601988132 0  -1.20149294466851 0.4903926402015986 0  -1.220820873156504 0.4938441702975627 0  -1.240269406947736 0.4965342284774628 0  -1.25980855781281 0.4984586668665699 0  -1.279408197797326 0.4996145181203694 0  -1.318668013555974 0.4996145181203701 0  -1.33826765354026 0.4984586668665892 0  -1.357806804405216 0.4965342284775059 0  -1.377255338196443 0.4938441702976212 0  -1.396583266684433 0.4903926402016728 0  -1.415760787604303 0.4861849601989122 0  -1.434758330608866 0.4812276182269165 0  -1.453546602863697 0.4755282581477182 0  -1.472096634214953 0.4690956679614086 0  -1.490379821858691 0.4619397662558556 0  -1.508367974444819 0.4540715869127957 0  -1.526033355545801 0.4455032620945052 0  -1.54334872642449 0.4362480035367599 0  -1.560287388033943 0.4263200821774683 0  -1.576823222185786 0.4157348061517221 0  -1.592930731822206 0.4045084971879737 0  -1.608585080330867 0.3926584654409306 0  -1.623762129841058 0.3802029828006066 0  -1.638438478442393 0.3671612547185227 0  -1.65259149626927 0.3535533905939355 0  -1.666199360393926 0.3394003727670928 0  -1.679241088476203 0.3247240241656421 0  -1.691696571116591 0.3095469746554744 0  -1.703546602863742 0.2938926261467731 0  -1.714772911827583 0.2777851165103216 0  -1.725358187853383 0.2612492823584976 0  -1.73528610
[...]
<PointData  Scalars="pressure"> 
<DataArray  type="Float64"  Name="pressure"  format="ascii">1.2270222346459581e-01  0.0000000000000000e+00  0.0000000000000000e+00  1.2267056875417919e-01  7.5122705976357851e-01  -1.4334533558524917e-01  4.5698729804137396e-02  -1.4333664167498511e-01  4.2700484479850298e-01  -6.3802382412311676e-01  -3.9426577996890344e-01  -4.8552282563140481e-01  4.2687447534638606e-01  -4.8595413310254892e-01  -3.9444346997334340e-01  -6.3817453908266220e-01  1.2170909037765321e-01  1.1841235458107989e-01  1.1121683882609579e-01  1.0273024555094402e-01  8.9980047599938967e-02  7.4247593844854187e-02  5.5281931128536105e-02  3.2704836283697927e-02  6.7731762860392189e-03  -2.0007721741099504e-02  -5.2340587124860581e-02  -7.8208171876894717e-02  -1.1189018603188908e-01  -1.3551322925890172e-01  -1.7540322365204722e-01  -1.8750325831568304e-01  -2.1291364792086745e-01  -2.3340328400148327e-01  -2.4763367113456161e-01  -2.6369690483271452e-01  -2.7508482107945453e-01  -2.8382815694018726e-01  -2.9013659819106646e-01  -2.9231972526890143e-01  -2.9146226003017123e-01  -2.8720402801951472e-01  -2.7671603708664150e-01  -2.6503299022257931e-01  -2.4736940017993281e-01  -2.3239800900919022e-01  -2.0677057227078247e-01  -1.9027312478246738e-01  -1.6834249383315339e-01  -1.4483250372639106e-01  -1.2826323565940673e-01  -1.0760342577718761e-01  -9.2907980907479967e-02  -7.6839832839747602e-02  -6.5028599796589953e-02  -5.3243939026834122e-02  -4.2957229930800075e-02  -3.6117310616985858e-02  -2.8331059886691434e-02  -2.3311210424991888e-02  -1.8344733635754843e-02  -1.4571519554146772e-02  -1.1146270980690487e-02  -8.1221528159211871e-03  -6.1807557492576373e-03  -2.9673421646766300e-03  -1.9917212020557989e-03  0.0000000000000000e+00  0.0000000000000000e+00  0.0000000000000000e+00  0.0000000000000000e+00  0.0000000000000000e+00  0.0000000000000000e+00  0.0000000000000000e+00  0.0000000000000000e+00  0.0000000000000000e+00  0.0000000000000000e+00  0.0000000000000000e+00  0.0000000000000000e+00  0.0000000000000000e+00  0.0000000000000000e+00  0.0000000000000000e+00  0.0000000000000000e+00  0.0000000000000000e+00  0.0000000000000000e+00  0.0000000000000000e+00  0.0000000000000000e+00  0.0000000000000000e+00  0.0000000000000000e+00  0.0000000000000000e+00  -1.7719306633368897e-03  -3.6355239677846019e-03  -5.7733649787075425e-03  -8.5303443740586023e-03  -1.0572721315299290e-02  -1.5035782466859819e-02  -1.7852345580332912e-02  -2.2978927093762560e-02  -2.9890525728121415e-02  -3.4119840630827840e-02  -4.4415535272754596e-02  -5.3404116794231793e-02  -6.4510367598923604e-02  -7.6936905213691009e-02  -9.1886037576167617e-02  -1.0710455145863478e-01  -1.2882358555897636e-01  -1.4491605343457578e-01  -1.6816238986967955e-01  -1.8839442534648129e-01  -2.0802914178242124e-01  -2.3245719489725578e-01  -2.4757746477210621e-01  -2.6448655132410398e-01  -2.7719891773593031e-01  -2.8744748091004252e-01  -2.9221959900711242e-01  -2.9157010549478751e-01  -2.9153310575148556e-01  -2.8321246068981598e-01  -2.7554706151356156e-01  -2.6446079329161648e-01  -2.4677817368792981e-01  -2.3525705465258395e-01  -2.1185487192526659e-01  -1.8824281846223417e-01  -1.7109522929798357e-01  -1.3832460431955407e-01  -1.1159873950774564e-01  -7.8233754343991407e-02  -5.2393514247249140e-02  -2.0087873397238880e-02  6.6865912240377627e-03  3.2749415404414450e-02  5.5119645743033782e-02  7.4292736374103052e-02  8.9848324581239813e-02  1.0271575325155320e-01  1.1126111842804003e-01  1.1836741044813889e-01  1.2167928593062122e-01  1.2357729498111593e-01  1.2694977734173138e-01  1.3284765639629215e-01  1.4102851000654545e-01  1.5130110406298183e-01  1.6330744535760910e-01  1.7634891858656099e-01  1.8965203113062429e-01  2.0187055633479506e-01  2.1213453683642669e-01  2.1888700222324067e-01  2.2122208187846917e-01  2.1867694025137099e-01  2.1201317765674788e-01  2.0195151328839747e-01  1.8967229663494881e-01  1.7642161818236576e-01  1.6333868450416819e-01  1.5132778039294328e-01  1.4108053224792177e-01  1.3283830689485332e-01  1.2699004050011015e-01  1.2359320427221478e-01  7.4910209807528005e-01  7.4302385542715443e-01  7.3245909018094302e-01  7.1849205632540636e-01  7.0020030503632424e-01  6.7855148698995238e-01  6.5343622462344420e-01  6.2440507446089377e-01  5.9356941141604536e-01  5.5878684587093808e-01  5.2216604871587913e-01  4.8411794226107502e-01  4.4332922461644181e-01  4.0296184067198570e-01  3.5956527208490452e-01  3.1787122771146781e-01  2.7424805563126076e-01  2.3292151900159819e-01  1.9007627170492133e-01  1.5070461527815734e-01  1.1027393908334229e-01  7.4180304338135938e-02  3.7893208898627496e-02  6.2805722817188990e-03  -2.5268476339712364e-02  -5.1836093294277484e-02  -7.6714122757056052e-02  -9.8727891086862765e-02  -1.1625251644951826e-01  -1.3181026902821474e-01  -1.4442920059247671e-01  -1.5315865241405383e-01  -1.5972308598432439e-01  -1.6383710268425691e-01  -1.6494471730798091e-01  -1.6393497050699063e-01  -1.6130050453822928e-01  -1.5639618537803840e-01  -1.5073064647311019e-01  -1.3566137959341165e-01  -1.2674023177119098e-01  -1.1810584197050383e-01  -1.0857280502558905e-01  -9.9395416163701664e-02  -9.0068670366844100e-02  -8.1133040528383382e-02  -7.2357573426105395e-02  -6.4030479685287273e-02  -5.5981750042379104e-02  -4.8325046094295283e-02  -4.0991377348636594e-02  -3.3989504368669328e-02  -2.7151762874506918e-02  -2.0579224108677095e-02  -1.4241545348861191e-02  -8.0061339131342595e-03  -1.9764792172717329e-03  3.7581059563656935e-03  9.1884469516144672e-03  1.4227305583341258e-02  1.8813006670361690e-02  2.2879162839392383e-02  2.6430133898334877e-02  2.9347009741829497e-02  3.1711502055534774e-02  3.3642440153511532e-02  3.5117523699845256e-02  3.6311969828149673e-02  3.7307262693349913e-02  3.8275793177126483e-02  3.9176605673021815e-02  4.0179239639187188e-02  4.1222674427356665e-02  4.2263878000439917e-02  4.3333253426920196e-02  4.4270347345411111e-02  4.5051548713915097e-02  4.5516996276249833e-02  4.5519394647267702e-02  4.5024020328582243e-02  4.4288432333037690e-02  4.3337944107663041e-02  4.2279015146095875e-02  4.1218927828685817e-02  4.0205382811427985e-02  3.9179548261558228e-02  3.8284218939386924e-02  3.7318556090113995e-02  3.6340308558169970e-02  3.5127269901151989e-02  3.3620377580915246e-02  3.1747219219661546e-02  2.9360756886476838e-02  2.6442882660542403e-02  2.2892243697877162e-02  1.8824939919419911e-02  1.4238734584345393e-02  9.1993591349310046e-03  3.7687964911813938e-03  -1.9658365814326632e-03  -7.9952555994461365e-03  -1.4230385379848330e-02  -2.0567261129610624e-02  -2.7139292338261182e-02  -3.3976133436746062e-02  -4.0976385178886181e-02  -4.8309858751051579e-02  -5.5965829671384484e-02  -6.4013915167902585e-02  -7.2340720343255144e-02  -8.1115936335897504e-02  -9.0051739893933849e-02  -9.9378905638647819e-02  -1.0855715067073360e-01  -1.1809127402361633e-01  -1.2672732086672078e-01  -1.3565030224155997e-01  -1.5072452507943571e-01  -1.5639303138653171e-01  -1.6130043183664527e-01  -1.6393819214193869e-01  -1.6495124127132679e-01  -1.6384711471480948e-01  -1.5973683030017824e-01  -1.5317613722404905e-01  -1.4445001840266636e-01  -1.3183413142682324e-01  -1.1627883181113799e-01  -9.8756159482995404e-02  -7.6744400788653064e-02  -5.1864725771862574e-02  -2.5317399274997175e-02  6.2515078308081895e-03  3.7791739528883782e-02  7.4309481953629880e-02  1.1021176256002903e-01  1.5056919631626850e-01  1.9025870482157137e-01  2.3209204488080817e-01  2.7502918387958131e-01  3.1756001892757574e-01  3.5995821769912173e-01  4.0248646572486679e-01  4.4323833241532262e-01  4.8427164964081731e-01  5.2180327663254766e-01  5.5910190481221900e-01  5.9266292796012676e-01  6.2434093791092793e-01  6.5348457763273893e-01  6.7835964939594273e-01  7.0054625987464891e-01  7.1857642105807829e-01  7.3277089235821535e-01  7.4284337424360602e-01  7.4919226549627516e-01  4.7085862149786933e-01  5.1068982543258756e-01  5.4142101613456683e-01  5.6658156969118145e-01  5.8103063199778793e-01  5.8648049190126239e-01  5.8149244808670519e-01  5.6710849122105622e-01  5.4228633556951311e-01  5.0892665342467469e-01  4.6647168515753074e-01  4.1819434248496112e-01  3.6173641953679053e-01  3.0201396976471628e-01  2.3705479858695136e-01  1.6869477056442342e-01  9.9695766145654827e-02  2.9028029531236347e-02  -4.2559147582839921e-02  -1.1100257213401737e-01  -1.7908900442065090e-01  -2.4365315972581281e-01  -3.0658803317130090e-01  -3.6298503278555250e-01  -4.1770029396734498e-01  -4.6700949864515090e-01  -5.0954212808819133e-01  -5.4930963485394879e-01  -5.8149024142455841e-01  -6.0961643678517308e-01  -6.3258205254887212e-01  -6.4924628083675073e-01  -6.6151727926674853e-01  -6.6965841301532936e-01  -6.7175121917387037e-01  -6.7189975273957814e-01  -6.6742671752794791e-01  -6.5942600994623457e-01  -6.5046526926990078e-01  -6.2525684276927740e-01  -6.1051042441539516e-01  -5.9551359897833323e-01  -5.8032324398348545e-01  -5.6485095267837127e-01  -5.5016912853661282e-01  -5.3578450029847779e-01  -5.2197318275686566e-01  -5.0914635158475585e-01  -4.9706070844134020e-01  -4.8599455020785270e-01  -4.7603295279936908e-01  -4.6688736634974332e-01  -4.5870891028418831e-01  -4.5138911234638646e-01  -4.4481624053011165e-01  -4.3900120805341497e-01  -4.3396629151533389e-01  -4.2932017441805442e-01  -4.2538343855707117e-01  -4.2166770203733617e-01  -4.1848409150278176e-01  -4.1540299065194580e-01  -4.1270912321456110e-01  -4.1000194444272109e-01  -4.0763539576944752e-01  -4.0521509564510833e-01  -4.0308843917865944e-01  -4.0095588866034387e-01  -3.9911430034103473e-01  -3.9734597808612171e-01  -3.9587720478036775e-01  -3.9461409982653850e-01  -3.9361395372517521e-01  -3.9296441681165201e-01  -3.9257640777887925e-01  -3.9254687027404878e-01  -3.9281661347575797e-01  -3.9339085787576639e-01  -3.9536046885294224e-01  -3.9674171005256126e-01  -3.9825045970016487e-01  -3.9999827258672466e-01  -4.0178148843565542e-01  -4.0377023920470750e-01  -4.0572352849136301e-01  -4.0786870665481129e-01  -4.0998666707712872e-01  -4.1228220016021305e-01  -4.1460067819380853e-01  -4.1711946352992457e-01  -4.1979136039665216e-01  -4.2270707939479324e-01  -4.2586384185718079e-01  -4.2940725975937505e-01  -4.3333289679893477e-01  -4.3763520547925400e-01  -4.4243804563766692e-01  -4.4768851152773698e-01  -4.5336780065985699e-01  -4.5961290055165455e-01  -4.6625062422168473e-01  -4.7332923525496445e-01  -4.8081350924093569e-01  -4.8806590132614991e-01  -4.9581587863233323e-01  -5.0316474167087910e-01  -5.1033115464272805e-01  -5.1650315743603459e-01  -5.2251573156001152e-01  -5.2652467359496091e-01  -5.2932018865651609e-01  -5.3012133917507287e-01  -5.2944839292436441e-01  -5.2518476138413095e-01  -5.2003266956042915e-01  -5.1038556364819043e-01  -4.9963272954657673e-01  -4.6878399817546096e-01  -4.5111807454510766e-01  -4.3029371319869125e-01  -4.0915277705835984e-01  -3.8640593488230207e-01  -3.6367137026396945e-01  -3.4139651465709742e-01  -3.1845424763386859e-01  -2.9763818745465037e-01  -2.7745718998494084e-01  -2.5798984519197188e-01  -2.4116042480349084e-01  -2.2457912327582982e-01  -2.1069032320367179e-01  -1.9795624638060458e-01  -1.8556244897292468e-01  -1.7527759016610459e-01  -1.6559121948667260e-01  -1.5632982596781630e-01  -1.4684506408706000e-01  -1.3857098176438970e-01  -1.2941592210323782e-01  -1.1977630633200317e-01  -1.0883030357997767e-01  -9.7595345297390820e-02  -8.3021078116637850e-02  -6.7786610646476994e-02  -4.8630556706497290e-02  -2.8181208232488049e-02  -2.2418593091302484e-03  2.5774167794150513e-02  5.8996168822821944e-02  9.6321146210035791e-02  1.3642983145913948e-01  1.8172924104852065e-01  2.2874274666326896e-01  2.7840046756489789e-01  3.2918161576166727e-01  3.7881834904862571e-01  3.7869358839138395e-01  3.2906515143473858e-01  2.7829511661195983e-01  2.2865073071502795e-01  1.8165200513083116e-01  1.3636901847387770e-01  9.6276901464685871e-02  5.8969136976375409e-02  2.5763668801161984e-02  -2.2370066978370218e-03  -2.8161461073173764e-02  -4.8597893610063239e-02  -6.7741784719149892e-02  -8.2966087227674540e-02  -9.7529901541595743e-02  -1.0876240994433865e-01  -1.1966203609473780e-01  -1.2933876133294250e-01  -1.3823479670417219e-01  -1.4695200671087830e-01  -1.5619871524079804e-01  -1.6547017714633738e-01  -1.7519809651458321e-01  -1.8545989486028525e-01  -1.9793436985482429e-01  -2.1025521434433311e-01  -2.2505835290815010e-01  -2.4075311387715717e-01  -2.5846285008465536e-01  -2.7695135791388159e-01  -2.9735275370829123e-01  -3.1880516127605091e-01  -3.4128371584644729e-01  -3.6336465532852769e-01  -3.8689752207730327e-01  -4.0860304840740291e-01  -4.3073378138793389e-01  -4.5070657304327899e-01  -4.6920277180474146e-01  -4.9918425264036054e-01  -5.1110811819400970e-01  -5.1939818523178649e-01  -5.2624236749253117e-01  -5.2910948280946557e-01  -5.3052896105389602e-01  -5.2955328187931738e-01  -5.2686164127071566e-01  -5.2275023085384120e-01  -5.1670680536666935e-01  -5.1078205533620202e-01  -5.0341743325534793e-01  -4.9606648853997981e-01  -4.8844834506360379e-01  -4.8115981251137685e-01  -4.7357785120636109e-01  -4.6657127601551240e-01  -4.5994768922130796e-01  -4.5369075202161074e-01  -4.4796070189071163e-01  -4.4271835200423837e-01  -4.3785459617916672e-01  -4.3358586796610804e-01  -4.2964086295149850e-01  -4.2612192865693072e-01  -4.2296434764374247e-01  -4.1999729944833691e-01  -4.1736002266289540e-01  -4.1484142082413344e-01  -4.1249445055907907e-01  -4.1021330880438189e-01  -4.0803221957550945e-01  -4.0599185423746892e-01  -4.0391753685626008e-01  -4.0203739492852264e-01  -4.0016201174046667e-01  -3.9846842427276813e-01  -3.9692074178247710e-01  -3.9553664878063566e-01  -3.9356154544485422e-01  -3.9298037711744632e-01  -3.9270393241222057e-01  -3.9272717620929037e-01  -3.9310907606776041e-01  -3.9375337117192050e-01  -3.9474872256616067e-01  -3.9600796907073244e-01  -3.9747368777766462e-01  -3.9923959678526638e-01  -4.0107983536358038e-01  -4.0321168218776032e-01  -4.0533707679392739e-01  -4.0775679235273471e-01  -4.1013167225202007e-01  -4.1283772316004652e-01  -4.1551457759181282e-01  -4.1861992242228402e-01  -4.2179406499850691e-01  -4.2551551431504847e-01  -4.2945269434152999e-01  -4.3409921361877518e-01  -4.3913468098102554e-01  -4.4495028466520931e-01  -4.5152361782622225e-01  -4.5884381159878185e-01  -4.6702268390248236e-01  -4.7616868937761381e-01  -4.8613080463129599e-01  -4.9719757674731346e-01  -5.0928395981031793e-01  -5.2211165384783309e-01  -5.3592401919090260e-01  -5.5030978073632952e-01  -5.6499297953688321e-01  -5.8046675124369884e-01  -5.9565875709709570e-01  -6.1065735063699744e-01  -6.2540564369690033e-01  -6.5061795438517867e-01  -6.5958057655004965e-01  -6.6758314727836676e-01  -6.7205785663876338e-01  -6.7191068934260079e-01  -6.6981905940034303e-01  -6.6167862792280785e-01  -6.4940789942874355e-01  -6.3274346261413339e-01  -6.0977699974593336e-01  -5.8164932987723816e-01  -5.4946668469466531e-01  -5.0969632906980711e-01  -4.6716034788196298e-01  -4.1784694866479971e-01  -3.6312725413040753e-01  -3.0672379751956974e-01  -2.4379048811402271e-01  -1.7918801651225894e-01  -1.1115532594043363e-01  -4.2824960896817144e-02  2.9191480622039748e-02  9.8339255291947300e-02  1.6878755754253086e-01  2.3591660691657731e-01  3.0166274124996334e-01  3.6182595575089155e-01  4.1840471381760191e-01  4.6668056105690880e-01  5.0922769441462434e-01  5.4248979007762999e-01  5.6616622288465479e-01  5.8209112199870972e-01  5.8617235416424585e-01  5.8111741321114807e-01  5.6643439426297149e-01  5.4129575558720000e-01  5.1055525621247388e-01  4.7072579460061870e-01  -4.0860294285693527e-01  8.6553527031468305e-02  8.5844081455940247e-02  -3.2537913156631210e-01  9.1517038395842368e-02  9.1560652594421393e-02  -3.8174537304875605e-01  -2.7741100871010360e-01  -2.7777761325633027e-01  -1.1426840153262047e-01  -1.1412353733112683e-01  1.0846930039659712e-01  1.0840752881453034e-01  2.3882453779241436e-01  2.3813492161047081e-01  -4.0254216903735723e-01  -3.8423356208604448e-01  -3.8295637389734627e-01  2.0407721632273057e-01  2.0567143142438241e-01  -5.3917892911956380e-02  -5.3844322322636369e-02  -2.3249002350153106e-01  -2.3253775614946490e-01  1.4424146830532522e-01  1.4417082876276424e-01  -3.9977172411674800e-01  -3.9950738598686175e-01  3.6611375899542370e-01  -4.3326502138369022e-01  1.1851963156580141e-02  -3.9827779777229372e-01  -3.9830243566182794e-01  3.7187420114525360e-01  -1.2464807978908771e-04  5.7987174875436268e-02  5.8021128758279437e-02  3.8785778920648162e-02  1.5261898173955196e-01  3.8751418307507481e-02  1.5255855343226354e-01  2.0129455367627191e-01  2.0120343157248102e-01  3.7284782555650037e-01  3.8217583667104327e-01  -2.5861900540843191e-01  -4.6415677555251272e-01  2.8205182110861052e-02  2.9713230040095115e-02  -7.0615571321661519e-02  -2.6133117344948864e-01  -3.5636873538760611e-01  -7.0718117585967799e-02  -2.6142410297076485e-01  -3.5645706140393035e-01  -4.1223005717953853e-01  -4.1252681258324958e-01  -4.0599025792732962e-01  -4.0580065370566337e-01  -3.9953239507168536e-01  -3.9939139886976605e-01  5.2957669091540438e-01  -2.6231449935208290e-01  -3.9768606399010586e-01  -2.6415403317987524e-01  -3.9499599215639253e-01  -4.0429299359301474e-01  -4.0441316289338403e-01  -4.0606432770956880e-01  2.8541045398358431e-02  2.8492129774935766e-02  -5.4517807449964084e-01  -5.4778786960959269e-01  -3.1291725302600897e-03  -3.1340539710874183e-03  -2.2346697537613752e-01  -2.2567577344195949e-01  -1.4083456468981262e-01  -1.4136826180826054e-01  5.6805669122548065e-02  2.9397179119348643e-01  2.9386151227281920e-01  -3.2067751218407220e-01  -3.2079753259790694e-01  -4.6026258845564799e-01  -4.6112718032500294e-01  -3.9020657102402001e-01  -4.5070789846925169e-01  -3.0462807454403606e-01  -4.5000449060954167e-01  -3.0357643191209205e-01  -4.2171035626618508e-01  6.0292283887116490e-03  -3.6171712456305169e-02  -3.6171103133461155e-02  4.0599443156428267e-01  4.0589118738312235e-01  -4.3140182098626795e-01  -4.3152605374951997e-01  -4.3095199196039830e-01  -4.3108175376346514e-01  -3.4225763605313425e-01  -3.4325212906108060e-01  -8.4191217139483656e-03  -8.0488906588106653e-03  -4.0807900449990947e-01  4.6645669529363054e-02  4.6657227349330803e-02  -8.3759304734253401e-02  -8.1056268464690301e-02  5.2856865797096288e-02  2.4121414395683569e-01  2.4795804793005466e-01  5.4714602956359304e-01  -2.6735425255728007e-03  -2.2031531450281541e-02  -2.2272957971545472e-02  1.0816113359228631e-01  1.0804779310340047e-01  -4.3702176649828345e-01  -4.3727229254094813e-01  4.4583720920125219e-01  -4.1347446083327344e-01  -4.1360905488647126e-01  6.0969662052732565e-01  -2.2661851068214675e-01  -2.2682742154460420e-01  -4.1161088583006933e-01  -4.1201090122472411e-01  -9.3577174245804730e-03  -7.2393165389535432e-03  4.4809718654292691e-01  -2.7873883249673398e-01  1.0850864648636155e-02  1.0857677050508340e-02  -3.0931357602682658e-01  -3.1176546942313016e-01  4.0182044469830369e-02  3.9979978573986344e-02  -4.0086002575964136e-01  -4.0067942042674526e-01  -2.9886491662589859e-01  -2.9884954044887768e-01  3.9212363292572425e-02  2.2474172136337536e-02  1.6990419229163400e-01  1.6643556559501743e-01  5.4156283394209241e-02  5.4232352785936425e-02  -4.7926478059023209e-01  -4.8526024756132818e-01  -1.0031351088749589e-01  1.2207433953479244e-01  1.2207208915530038e-01  -3.1789345037994893e-01  -3.1492396977118203e-01  -1.7994119070896289e-01  -1.8006614389725351e-01  1.8320981933251135e-01  1.8328720588689593e-01  2.7875514840277019e-02  2.7788478840428194e-02  2.8130810970916498e-01  6.5736048344066600e-01  -4.0114703123124557e-01  -4.0101479287059788e-01  -3.9923432313482554e-01  -3.9945241953492522e-01  -4.0720538761351965e-01  -4.0734410677188060e-01  -4.5708097851128823e-02  -2.8638051731454917e-01  -2.8609330817874029e-01  -3.7203273762317995e-01  -3.7103701968208969e-01  3.35154202293