<?xml version="1.0"?>
<VTKFile type="UnstructuredGrid"  version="0.1"  >
<UnstructuredGrid>
<Piece  NumberOfPoints="13554" NumberOfCells="26480">
<Points>
<DataArray  type="Float64"  NumberOfComponents="3"  format="ascii">-6 -6 0  20 -6 0  20 6 0  -6 6 0  -1.799038105676658 0 0  -1.299038105676658 -0.5 0  -0.799038105676658 0 0  -1.299038105676658 0.5 0  -0.5 -0.75 0  0 -1.25 0  0.5 -0.75 0  0 -0.25 0  -0.5 0.75 0  0 0.25 0  0.5 0.75 0  0 1.25 0  -5.500000000001825 -6 0  -5.00000000000365 -6 0  -4.500000000005476 -6 0  -4.000000000007301 -6 0  -3.500000000009125 -6 0  -3.00000000001095 -6 0  -2.500000000013202 -6 0  -2.000000000015761 -6 0  -1.50000000001764 -6 0  -1.000000000019466 -6 0  -0.5000000000212914 -6 0  -2.311839608637456e-11 -6 0  0.4999999999750564 -6 0  0.9999999999732312 -6 0  1.499999999971405 -6 0  1.999999999969446 -6 0  2.499999999966127 -6 0  2.999999999962597 -6 0  3.499999999959066 -6 0  3.999999999955534 -6 0  4.499999999952003 -6 0  4.999999999948473 -6 0  5.49999999994494 -6 0  5.999999999941409 -6 0  6.499999999937879 -6 0  6.999999999934694 -6 0  7.49999999993423 -6 0  7.999999999934113 -6 0  8.499999999933999 -6 0  8.999999999933882 -6 0  9.499999999933767 -6 0  9.999999999934184 -6 0  10.49999999993732 -6 0  10.99999999994062 -6 0  11.49999999994392 -6 0  11.99999999994722 -6 0  12.49999999995052 -6 0  12.99999999995381 -6 0  13.49999999995712 -6 0  13.99999999996042 -6 0  14.49999999996371 -6 0  14.99999999996701 -6 0  15.49999999997031 -6 0  15.99999999997361 -6 0  16.49999999997691 -6 0  16.99999999998021 -6 0  17.4999999999835 -6 0  17.99999999998681 -6 0  18.49999999999011 -6 0  18.99999999999341 -6 0  19.4999999999967 -6 0  20 -5.500000000001853 0  20 -5.000000000003705 0  20 -4.500000000005556 0  20 -4.000000000007409 0  20 -3.50000000000926 0  20 -3.000000000011112 0  20 -2.500000000012963 0  20 -2.000000000014814 0  20 -1.500000000016665 0  20 -1.000000000018516 0  20 -0.5000000000203677 0  20 -2.204547655537681e-11 0  20 0.4999999999796305 0  20 0.9999999999814779 0  20 1.499999999983327 0  20 1.999999999985175 0  20 2.499999999987029 0  20 2.999999999988882 0  20 3.499999999990735 0  20 3.999999999992589 0  20 4.49999999999444 0  20 4.999999999996293 0  20 5.499999999998147 0  19.50000000000303 6 0  19.00000000000606 6 0  18.50000000000909 6 0  18.00000000001212 6 0  17.50000000001515 6 0  17.00000000001818 6 0  16.50000000002121 6 0  16.00000000002424 6 0  15.50000000002727 6 0  15.00000000003029 6 0  14.50000000003332 6 0  14.00000000003635 6 0  13.50000000003939 6 0  13.00000000004241 6 0  12.50000000004544 6 0  12.00000000004847 6 0  11.5000000000515 6 0  11.00000000005453 6 0  10.50000000005755 6 0  10.00000000006058 6 0  9.50000000006361 6 0  9.000000000066636 6 0  8.500000000069663 6 0  8.000000000072694 6 0  7.500000000075721 6 0  7.000000000078401 6 0  6.50000000007836 6 0  6.000000000077973 6 0  5.500000000077584 6 0  5.0000000000772 6 0  4.500000000076811 6 0  4.00000000007589 6 0  3.500000000072248 6 0  3.000000000068443 6 0  2.500000000064645 6 0  2.000000000060837 6 0  1.500000000057039 6 0  1.000000000053234 6 0  0.5000000000494325 6 0  4.562750177683483e-11 6 0  -0.4999999999581739 6 0  -0.9999999999619789 6 0  -1.499999999965777 6 0  -1.999999999969585 6 0  -2.499999999973383 6 0  -2.999999999977188 6 0  -3.499999999980989 6 0  -3.999999999984787 6 0  -4.499999999988596 6 0  -4.999999999992394 6 0  -5.499999999996199 6 0  -6 5.500000000001853 0  -6 5.000000000003705 0  -6 4.500000000005556 0  -6 4.000000000007409 0  -6 3.50000000000926 0  -6 3.000000000011112 0  -6 2.500000000012963 0  -6 2.000000000014814 0  -6 1.500000000016665 0  -6 1.000000000018516 0  -6 0.5000000000203677 0  -6 2.204547655537681e-11 0  -6 -0.4999999999796305 0  -6 -0.9999999999814779 0  -6 -1.499999999983327 0  -6 -1.999999999985175 0  -6 -2.499999999987029 0  -6 -2.999999999988882 0  -6 -3.499999999990735 0  -6 -3.999999999992589 0  -6 -4.49999999999444 0  -6 -4.999999999996293 0  -6 -5.499999999998147 0  -1.798652623797024 -0.01962990787940635 0  -1.797496772543235 -0.03922954786375742 0  -1.795572334154145 -0.05876869872871639 0  -1.792882275974263 -0.0782172325198883 0  -1.789430745878327 -0.09754516100779272 0  -1.78522306587557 -0.1167226819276475 0  -1.780265723903582 -0.1357202249321832 0  -1.774566363824363 -0.1545084971870802 0  -1.768133773638067 -0.1730585285382951 0  -1.760977871932502 -0.1913417161820606 0  -1.753109692589439 -0.2093298687681933 0  -1.744541367771138 -0.2269952498691915 0  -1.735286109213394 -0.2443106207478749 0  -1.725358187854079 -0.2612492823573626 0  -1.714772911828365 -0.2777851165091517 0  -1.703546602864618 -0.2938926261455674 0  -1.691696571117556 -0.3095469746542509 0  -1.679241088477271 -0.3247240241643924 0  -1.666199360395112 -0.3394003727658096 0  -1.65259149627058 -0.3535533905926256 0  -1.638438478443802 -0.3671612547172209 0  -1.623762129842412 -0.3802029827994502 0  -1.608585080332201 -0.3926584654398785 0  -1.592930731823511 -0.4045084971870262 0  -1.576823222187039 -0.4157348061508851 0  -1.560287388035277 -0.426320082176651 0  -1.543348726425771 -0.4362480035360425 0  -1.526033355547057 -0.4455032620938652 0  -1.508367974445933 -0.4540715869122821 0  -1.490379821859767 -0.4619397662554095 0  -1.472096634215862 -0.4690956679610732 0  -1.453546602864495 -0.4755282581474589 0  -1.434758330609404 -0.4812276182267646 0  -1.415760787604716 -0.4861849601988129 0  -1.396583266684807 -0.4903926402015984 0  -1.377255338196813 -0.4938441702975626 0  -1.357806804405581 -0.4965342284774627 0  -1.338267653540506 -0.4984586668665699 0  -1.31866801355599 -0.4996145181203694 0  -1.279408197797339 -0.4996145181203699 0  -1.259808557813051 -0.4984586668665888 0  -1.240269406948093 -0.4965342284775051 0  -1.220820873156863 -0.4938441702976197 0  -1.201492944668872 -0.4903926402016704 0  -1.182315423748999 -0.4861849601989088 0  -1.163317880744434 -0.4812276182269119 0  -1.144529608489601 -0.4755282581477123 0  -1.125979577138343 -0.4690956679614011 0  -1.107696389494603 -0.4619397662558464 0  -1.089708236908473 -0.4540715869127846 0  -1.072042855807489 -0.4455032620944922 0  -1.054727484928798 -0.4362480035367446 0  -1.037788823319344 -0.4263200821774507 0  -1.0212529891675 -0.4157348061517021 0  -1.005145479531079 -0.4045084971879511 0  -0.9894911310224221 -0.3926584654409095 0  -0.9743140815122564 -0.380202982800605 0  -0.9596377329108691 -0.3671612547184732 0  -0.9454847150840451 -0.3535533905939346 0  -0.9318768509594187 -0.3394003727671238 0  -0.9188351228771346 -0.324724024165668 0  -0.9063796402367137 -0.3095469746554602 0  -0.894529608489562 -0.2938926261467564 0  -0.8833032995257204 -0.2777851165103025 0  -0.8727180234999081 -0.2612492823584579 0  -0.8627901021405279 -0.2443106207489568 0  -0.8535348435826871 -0.2269952498701913 0  -0.8449665187642977 -0.2093298687691053 0  -0.8370983394211652 -0.1913417161829084 0  -0.8299424377155358 -0.1730585285390712 0  -0.8235098475291767 -0.1545084971877673 0  -0.8178104874498986 -0.1357202249327651 0  -0.8128531454778642 -0.1167226819281381 0  -0.8086454654750708 -0.09754516100820496 0  -0.8051939353791064 -0.07821723252022435 0  -0.8025038771992037 -0.05876869872899349 0  -0.8005794388100933 -0.03922954786391442 0  -0.7994235875562945 -0.01962990787948142 0  -0.7994235875562916 0.0196299078794071 0  -0.8005794388100811 0.03922954786375862 0  -0.802503877199171 0.05876869872871737 0  -0.8051939353790528 0.07821723251988616 0  -0.8086454654749904 0.09754516100780108 0  -0.8128531454777497 0.1167226819276609 0  -0.8178104874497394 0.1357202249322002 0  -0.8235098475289587 0.1545084971870967 0  -0.8299424377152553 0.1730585285383113 0  -0.8370983394208206 0.1913417161820763 0  -0.8449665187638844 0.2093298687682086 0  -0.8535348435821851 0.2269952498692064 0  -0.8627901021399187 0.2443106207478691 0  -0.8727180234992129 0.2612492823573233 0  -0.8833032995249311 0.2777851165091213 0  -0.8945296084886836 0.2938926261455474 0  -0.9063796402357482 0.3095469746542355 0  -0.9188351228760521 0.3247240241644004 0  -0.9318768509581694 0.3394003727657722 0  -0.9454847150827066 0.3535533905925962 0  -0.9596377329094974 0.3671612547172051 0  -0.974314081510931 0.380202982799473 0  -0.989491131021136 0.3926584654398955 0  -1.005145479529808 0.4045084971870281 0  -1.021252989166279 0.4157348061508868 0  -1.037788823318041 0.4263200821766524 0  -1.054727484927547 0.4362480035360438 0  -1.072042855806261 0.4455032620938663 0  -1.089708236907385 0.454071586912283 0  -1.107696389493551 0.4619397662554103 0  -1.125979577137455 0.4690956679610738 0  -1.144529608488823 0.4755282581474594 0  -1.163317880743913 0.481227618226765 0  -1.182315423748601 0.4861849601988132 0  -1.20149294466851 0.4903926402015986 0  -1.220820873156504 0.4938441702975627 0  -1.240269406947736 0.4965342284774628 0  -1.25980855781281 0.4984586668665699 0  -1.279408197797326 0.4996145181203694 0  -1.318668013555974 0.4996145181203701 0  -1.33826765354026 0.4984586668665892 0  -1.357806804405216 0.4965342284775059 0  -1.377255338196443 0.4938441702976212 0  -1.396583266684433 0.4903926402016728 0  -1.415760787604303 0.4861849601989122 0  -1.434758330608866 0.4812276182269165 0  -1.453546602863697 0.4755282581477182 0  -1.472096634214953 0.4690956679614086 0  -1.490379821858691 0.4619397662558556 0  -1.508367974444819 0.4540715869127957 0  -1.526033355545801 0.4455032620945052 0  -1.54334872642449 0.4362480035367599 0  -1.560287388033943 0.4263200821774683 0  -1.576823222185786 0.4157348061517221 0  -1.592930731822206 0.4045084971879737 0  -1.608585080330867 0.3926584654409306 0  -1.623762129841058 0.3802029828006066 0  -1.638438478442393 0.3671612547185227 0  -1.65259149626927 0.3535533905939355 0  -1.666199360393926 0.3394003727670928 0  -1.679241088476203 0.3247240241656421 0  -1.691696571116591 0.3095469746554744 0  -1.703546602863742 0.2938926261467731 0  -1.714772911827583 0.2777851165103216 0  -1.725358187853383 0.2612492823584976 0  -1.73528610
[...]
<PointData  Vectors="velocity"> 
<DataArray  type="Float64"  Name="velocity"  NumberOfComponents="3" format="ascii">1.0000000000000000e+00 0.0000000000000000e+00 0.0000000000000000e+00  1.0000000000000000e+00 0.0000000000000000e+00 0.0000000000000000e+00  1.0000000000000000e+00 0.0000000000000000e+00 0.0000000000000000e+00  1.0000000000000000e+00 0.0000000000000000e+00 0.0000000000000000e+00  0.0000000000000000e+00 0.0000000000000000e+00 0.0000000000000000e+00  0.0000000000000000e+00 0.0000000000000000e+00 0.0000000000000000e+00  0.0000000000000000e+00 0.0000000000000000e+00 0.0000000000000000e+00  0.0000000000000000e+00 0.0000000000000000e+00 0.0000000000000000e+00  0.0000000000000000e+00 0.0000000000000000e+00 0.0000000000000000e+00  0.0000000000000000e+00 0.0000000000000000e+00 0.0000000000000000e+00  0.0000000000000000e+00 0.0000000000000000e+00 0.0000000000000000e+00  0.0000000000000000e+00 0.0000000000000000e+00 0.0000000000000000e+00  0.0000000000000000e+00 0.0000000000000000e+00 0.0000000000000000e+00  0.0000000000000000e+00 0.0000000000000000e+00 0.0000000000000000e+00  0.0000000000000000e+00 0.0000000000000000e+00 0.0000000000000000e+00  0.0000000000000000e+00 0.0000000000000000e+00 0.0000000000000000e+00  1.0000000000000000e+00 0.0000000000000000e+00 0.0000000000000000e+00  1.0000000000000000e+00 0.0000000000000000e+00 0.0000000000000000e+00  1.0000000000000000e+00 0.0000000000000000e+00 0.0000000000000000e+00  1.0000000000000000e+00 0.0000000000000000e+00 0.0000000000000000e+00  1.0000000000000000e+00 0.0000000000000000e+00 0.0000000000000000e+00  1.0000000000000000e+00 0.0000000000000000e+00 0.0000000000000000e+00  1.0000000000000000e+00 0.0000000000000000e+00 0.0000000000000000e+00  1.0000000000000000e+00 0.0000000000000000e+00 0.0000000000000000e+00  1.0000000000000000e+00 0.0000000000000000e+00 0.0000000000000000e+00  1.0000000000000000e+00 0.0000000000000000e+00 0.0000000000000000e+00  1.0000000000000000e+00 0.0000000000000000e+00 0.0000000000000000e+00  1.0000000000000000e+00 0.0000000000000000e+00 0.0000000000000000e+00  1.0000000000000000e+00 0.0000000000000000e+00 0.0000000000000000e+00  1.0000000000000000e+00 0.0000000000000000e+00 0.0000000000000000e+00  1.0000000000000000e+00 0.0000000000000000e+00 0.0000000000000000e+00  1.0000000000000000e+00 0.0000000000000000e+00 0.0000000000000000e+00  1.0000000000000000e+00 0.0000000000000000e+00 0.0000000000000000e+00  1.0000000000000000e+00 0.0000000000000000e+00 0.0000000000000000e+00  1.0000000000000000e+00 0.0000000000000000e+00 0.0000000000000000e+00  1.0000000000000000e+00 0.0000000000000000e+00 0.0000000000000000e+00  1.0000000000000000e+00 0.0000000000000000e+00 0.0000000000000000e+00  1.0000000000000000e+00 0.0000000000000000e+00 0.0000000000000000e+00  1.0000000000000000e+00 0.0000000000000000e+00 0.0000000000000000e+00  1.0000000000000000e+00 0.0000000000000000e+00 0.0000000000000000e+00  1.0000000000000000e+00 0.0000000000000000e+00 0.0000000000000000e+00  1.0000000000000000e+00 0.0000000000000000e+00 0.0000000000000000e+00  1.0000000000000000e+00 0.0000000000000000e+00 0.0000000000000000e+00  1.0000000000000000e+00 0.0000000000000000e+00 0.0000000000000000e+00  1.0000000000000000e+00 0.0000000000000000e+00 0.0000000000000000e+00  1.0000000000000000e+00 0.0000000000000000e+00 0.0000000000000000e+00  1.0000000000000000e+00 0.0000000000000000e+00 0.0000000000000000e+00  1.0000000000000000e+00 0.0000000000000000e+00 0.0000000000000000e+00  1.0000000000000000e+00 0.0000000000000000e+00 0.0000000000000000e+00  1.0000000000000000e+00 0.0000000000000000e+00 0.0000000000000000e+00  1.0000000000000000e+00 0.0000000000000000e+00 0.0000000000000000e+00  1.0000000000000000e+00 0.0000000000000000e+00 0.0000000000000000e+00  1.0000000000000000e+00 0.0000000000000000e+00 0.0000000000000000e+00  1.0000000000000000e+00 0.0000000000000000e+00 0.0000000000000000e+00  1.0000000000000000e+00 0.0000000000000000e+00 0.0000000000000000e+00  1.0000000000000000e+00 0.0000000000000000e+00 0.0000000000000000e+00  1.0000000000000000e+00 0.0000000000000000e+00 0.0000000000000000e+00  1.0000000000000000e+00 0.0000000000000000e+00 0.0000000000000000e+00  1.0000000000000000e+00 0.0000000000000000e+00 0.0000000000000000e+00  1.0000000000000000e+00 0.0000000000000000e+00 0.0000000000000000e+00  1.0000000000000000e+00 0.0000000000000000e+00 0.0000000000000000e+00  1.0000000000000000e+00 0.0000000000000000e+00 0.0000000000000000e+00  1.0000000000000000e+00 0.0000000000000000e+00 0.0000000000000000e+00  1.0000000000000000e+00 0.0000000000000000e+00 0.0000000000000000e+00  1.0000000000000000e+00 0.0000000000000000e+00 0.0000000000000000e+00  1.0000000000000000e+00 0.0000000000000000e+00 0.0000000000000000e+00  1.0000000000000000e+00 0.0000000000000000e+00 0.0000000000000000e+00  9.9359235235804910e-01 -9.7887281908913895e-04 0.0000000000000000e+00  9.9710051197200289e-01 -1.9657019470933541e-03 0.0000000000000000e+00  9.9967889586011882e-01 -2.0422974328802718e-03 0.0000000000000000e+00  1.0004641840890076e+00 -1.7802212655691589e-03 0.0000000000000000e+00  1.0008278180376751e+00 -1.4711906879252394e-03 0.0000000000000000e+00  1.0010878517872153e+00 -1.1508224997775233e-03 0.0000000000000000e+00  1.0012808660074768e+00 -8.6565121639556981e-04 0.0000000000000000e+00  1.0014196664360060e+00 -6.1491270038689942e-04 0.0000000000000000e+00  1.0015165628354417e+00 -4.1839798506774296e-04 0.0000000000000000e+00  1.0015761141787933e+00 -2.5496605817067983e-04 0.0000000000000000e+00  1.0016053844592985e+00 -1.1600249447133380e-04 0.0000000000000000e+00  1.0016149474664995e+00 -6.6917076112979807e-06 0.0000000000000000e+00  1.0016060040530581e+00 1.1080028386367612e-04 0.0000000000000000e+00  1.0015730513030894e+00 2.5203585742692851e-04 0.0000000000000000e+00  1.0015162004419036e+00 4.1577623984248617e-04 0.0000000000000000e+00  1.0014224636817999e+00 6.2221557208477307e-04 0.0000000000000000e+00  1.0012824710311168e+00 8.5969818131638800e-04 0.0000000000000000e+00  1.0010868882429860e+00 1.1513205099561085e-03 0.0000000000000000e+00  1.0008291955088031e+00 1.4711286427193436e-03 0.0000000000000000e+00  1.0004724218976653e+00 1.7899085658009612e-03 0.0000000000000000e+00  9.9969522527930499e-01 2.0554515155350251e-03 0.0000000000000000e+00  9.9715766197671762e-01 1.9827137946162609e-03 0.0000000000000000e+00  9.9363901326374582e-01 1.0230130517242210e-03 0.0000000000000000e+00  1.0000000000000000e+00 0.0000000000000000e+00 0.0000000000000000e+00  1.0000000000000000e+00 0.0000000000000000e+00 0.0000000000000000e+00  1.0000000000000000e+00 0.0000000000000000e+00 0.0000000000000000e+00  1.0000000000000000e+00 0.0000000000000000e+00 0.0000000000000000e+00  1.0000000000000000e+00 0.0000000000000000e+00 0.0000000000000000e+00  1.0000000000000000e+00 0.0000000000000000e+00 0.0000000000000000e+00  1.0000000000000000e+00 0.0000000000000000e+00 0.0000000000000000e+00  1.0000000000000000e+00 0.0000000000000000e+00 0.0000000000000000e+00  1.0000000000000000e+00 0.0000000000000000e+00 0.0000000000000000e+00  1.0000000000000000e+00 0.0000000000000000e+00 0.0000000000000000e+00  1.0000000000000000e+00 0.0000000000000000e+00 0.0000000000000000e+00  1.0000000000000000e+00 0.0000000000000000e+00 0.0000000000000000e+00  1.0000000000000000e+00 0.0000000000000000e+00 0.0000000000000000e+00  1.0000000000000000e+00 0.0000000000000000e+00 0.0000000000000000e+00  1.0000000000000000e+00 0.0000000000000000e+00 0.0000000000000000e+00  1.0000000000000000e+00 0.0000000000000000e+00 0.0000000000000000e+00  1.0000000000000000e+00 0.0000000000000000e+00 0.0000000000000000e+00  1.0000000000000000e+00 0.0000000000000000e+00 0.0000000000000000e+00  1.0000000000000000e+00 0.0000000000000000e+00 0.0000000000000000e+00  1.0000000000000000e+00 0.0000000000000000e+00 0.0000000000000000e+00  1.0000000000000000e+00 0.0000000000000000e+00 0.0000000000000000e+00  1.0000000000000000e+00 0.0000000000000000e+00 0.0000000000000000e+00  1.0000000000000000e+00 0.0000000000000000e+00 0.0000000000000000e+00  1.0000000000000000e+00 0.0000000000000000e+00 0.0000000000000000e+00  1.0000000000000000e+00 0.0000000000000000e+00 0.0000000000000000e+00  1.0000000000000000e+00 0.0000000000000000e+00 0.0000000000000000e+00  1.0000000000000000e+00 0.0000000000000000e+00 0.0000000000000000e+00  1.0000000000000000e+00 0.0000000000000000e+00 0.0000000000000000e+00  1.0000000000000000e+00 0.0000000000000000e+00 0.0000000000000000e+00  1.0000000000000000e+00 0.0000000000000000e+00 0.0000000000000000e+00  1.0000000000000000e+00 0.0000000000000000e+00 0.0000000000000000e+00  1.0000000000000000e+00 0.0000000000000000e+00 0.0000000000000000e+00  1.0000000000000000e+00 0.0000000000000000e+00 0.0000000000000000e+00  1.0000000000000000e+00 0.0000000000000000e+00 0.0000000000000000e+00  1.0000000000000000e+00 0.0000000000000000e+00 0.0000000000000000e+00  1.0000000000000000e+00 0.0000000000000000e+00 0.0000000000000000e+00  1.0000000000000000e+00 0.0000000000000000e+00 0.0000000000000000e+00  1.0000000000000000e+00 0.0000000000000000e+00 0.0000000000000000e+00  1.0000000000000000e+00 0.0000000000000000e+00 0.0000000000000000e+00  1.0000000000000000e+00 0.0000000000000000e+00 0.0000000000000000e+00  1.0000000000000000e+00 0.0000000000000000e+00 0.0000000000000000e+00  1.0000000000000000e+00 0.0000000000000000e+00 0.0000000000000000e+00  1.0000000000000000e+00 0.0000000000000000e+00 0.0000000000000000e+00  1.0000000000000000e+00 0.0000000000000000e+00 0.0000000000000000e+00  1.0000000000000000e+00 0.0000000000000000e+00 0.0000000000000000e+00  1.0000000000000000e+00 0.0000000000000000e+00 0.0000000000000000e+00  1.0000000000000000e+00 0.0000000000000000e+00 0.0000000000000000e+00  1.0000000000000000e+00 0.0000000000000000e+00 0.0000000000000000e+00  1.0000000000000000e+00 0.0000000000000000e+00 0.0000000000000000e+00  1.0000000000000000e+00 0.0000000000000000e+00 0.0000000000000000e+00  1.0000000000000000e+00 0.0000000000000000e+00 0.0000000000000000e+00  1.0000000000000000e+00 0.0000000000000000e+00 0.0000000000000000e+00  1.0000000000000000e+00 0.0000000000000000e+00 0.0000000000000000e+00  1.0000000000000000e+00 0.0000000000000000e+00 0.0000000000000000e+00  1.0000000000000000e+00 0.0000000000000000e+00 0.0000000000000000e+00  1.0000000000000000e+00 0.0000000000000000e+00 0.0000000000000000e+00  1.0000000000000000e+00 0.0000000000000000e+00 0.0000000000000000e+00  1.0000000000000000e+00 0.0000000000000000e+00 0.0000000000000000e+00  1.0000000000000000e+00 0.0000000000000000e+00 0.0000000000000000e+00  1.0000000000000000e+00 0.0000000000000000e+00 0.0000000000000000e+00  1.0000000000000000e+00 0.0000000000000000e+00 0.0000000000000000e+00  1.0000000000000000e+00 0.0000000000000000e+00 0.0000000000000000e+00  1.0000000000000000e+00 0.0000000000000000e+00 0.0000000000000000e+00  1.0000000000000000e+00 0.0000000000000000e+00 0.0000000000000000e+00  1.0000000000000000e+00 0.0000000000000000e+00 0.0000000000000000e+00  1.0000000000000000e+00 0.0000000000000000e+00 0.0000000000000000e+00  1.0000000000000000e+00 0.0000000000000000e+00 0.0000000000000000e+00  1.0000000000000000e+00 0.0000000000000000e+00 0.0000000000000000e+00  1.0000000000000000e+00 0.0000000000000000e+00 0.0000000000000000e+00  1.0000000000000000e+00 0.0000000000000000e+00 0.0000000000000000e+00  1.0000000000000000e+00 0.0000000000000000e+00 0.0000000000000000e+00  1.0000000000000000e+00 0.0000000000000000e+00 0.0000000000000000e+00  1.0000000000000000e+00 0.0000000000000000e+00 0.0000000000000000e+00  1.0000000000000000e+00 0.0000000000000000e+00 0.0000000000000000e+00  0.0000000000000000e+00 0.0000000000000000e+00 0.0000000000000000e+00  0.0000000000000000e+00 0.0000000000000000e+00 0.0000000000000000e+00  0.0000000000000000e+00 0.0000000000000000e+00 0.0000000000000000e+00  0.0000000000000000e+00 0.0000000000000000e+00 0.0000000000000000e+00  0.0000000000000000e+00 0.0000000000000000e+00 0.0000000000000000e+00  0.0000000000000000e+00 0.0000000000000000e+00 0.0000000000000000e+00  0.0000000000000000e+00 0.0000000000000000e+00 0.0000000000000000e+00  0.0000000000000000e+00 0.0000000000000000e+00 0.0000000000000000e+00  0.0000000000000000e+00 0.0000000000000000e+00 0.0000000000000000e+00  0.0000000000000000e+00 0.0000000000000000e+00 0.0000000000000000e+00  0.0000000000000000e+00 0.0000000000000000e+00 0.0000000000000000e+00  0.0000000000000000e+00 0.0000000000000000e+00 0.0000000000000000e+00  0.0000000000000000e+00 0.0000000000000000e+00 0.0000000000000000e+00  0.0000000000000000e+00 0.0000000000000000e+00 0.0000000000000000e+00  0.0000000000000000e+00 0.0000000000000000e+00 0.0000000000000000e+00  0.0000000000000000e+00 0.0000000000000000e+00 0.0000000000000000e+00  0.0000000000000000e+00 0.0000000000000000e+00 0.0000000000000000e+00  0.0000000000000000e+00 0.0000000000000000e+00 0.0000000000000000e+00  0.0000000000000000e+00 0.0000000000000000e+00 0.0000000000000000e+00  0.0000000000000000e+00 0.0000000000000000e+00 0.0000000000000000e+00  0.0000000000000000e+00 0.0000000000000000e+00 0.0000000000000000e+00  0.0000000000000000e+00 0.0000000000000000e+00 0.0000000000000000e+00  0.0000000000000000e+00 0.0000000000000000e+00 0.0000000000000000e+00  0.0000000000000000e+00 0.0000000000000000e+00 0.0000000000000000e+00  0.0000000000000000e+00 0.0000000000000000e+00 0.0000000000000000e+00  0.0000000000000000e+00 0.0000000000000000e+00 0.0000000000000000e+00  0.0000000000000000e+00 0.0000000000000000e+00 0.0000000000000000e+00  0.0000000000000000e+00 0.0000000000000000e+00 0.0000000000000000e+00  0.0000000000000000e+00 0.0000000000000000e+00 0.0000000000000000e+00  0.0000000000000000e+00 0.0000000000000000e+00 0.0000000000000000e+00  0.0000000000000000e+00 0.0000000000000000e+00 0.0000000000000000e+00  0.0000000000000000e+00 0.0000000000000000e+00 0.0000000000000000e+00  0.0000000000000000e+00 0.0000000000000000e+00 0.0000000000000000e+00  0.0000000000000000e+00 0.0000000000000000e+00 0.0000000000000000e+00  0.0000000000000000e+00 0.0000000000000000e+00 0.0000000000000000e+00  0.0000000000000000e+00 0.0000000000000000e+00 0.0000000000000000e+00  0.0000000000000000e+00 0.0000000000000000e+00 0.0000000000000000e+00  0.0000000000000000e+00 0.0000000000000000e+00 0.0000000000000000e+00  0.0000000000000000e+00 0.0000000000000000e+00 0.0000000000000000e+00  0.0000000000000000e+00 0.0000000000000000e+00 0.0000000000000000e+00  0.0000000000000000e+00 0.0000000000000000e+00 0.0000000000000000e+00  0.0000000000000000e+00 0.0000000000000000e+00 0.0000000000000000e+00  0.0000000000000000e+00 0.0000000000000000e+00 0.0000000000000000e+00  0.0000000000000000e+00 0.0000000000000000e+00 0.0000000000000000e+00  0.0000000000000000e+00 0.0000000000000000e+00 0.0000000000000000e+00  0.0000000000000000e+00 0.0000000000000000e+00 0.0000000000000000e+00  0.0000000000000000e+00 0.0000000000000000e+00 0.0000000000000000e+00  0.0000000000000000e+00 0.0000000000000000e+00 0.0000000000000000e+00  0.0000000000000000e+00 0.0000000000000000e+00 0.0000000000000000e+00  0.0000000000000000e+00 0.0000000000000000e+00 0.0000000000000000e+00  0.0000000000000000e+00 0.0000000000000000e+00 0.0000000000000000e+00  0.0000000000000000e+00 0.0000000000000000e+00 0.0000000000000000e+00  0.0000000000000000e+00 0.0000000000000000e+00 0.0000000000000000e+00  0.0000000000000000e+00 0.0000000000000000e+00 0.0000000000000000e+00  0.0000000000000000e+00 0.0000000000000000e+00 0.0000000000000000e+00  0.0000000000000000e+00 0.0000000000000000e+00 0.0000000000000000e+00  0.0000000000000000e+00 0.0000000000000000e+00 0.0000000000000000e+00  0.0000000000000000e+00 0.0000000000000000e+00 0.0000000000000000e+00  0.0000000000000000e+00 0.0000000000000000e+00 0.0000000000000000e+00  0.0000000000000000e+00 0.0000000000000000e+00 0.0000000000000000e+00  0.0000000000000000e+00 0.0000000000000000e+00 0.0000000000000000e+00  0.0000000000000000e+00 0.0000000000000000e+00 0.0000000000000000e+00  0.0000000000000000e+00 0.0000000000000000e+00 0.0000000000000000e+00  0.0000000000000000e+00 0.0000000000000000e+00 0.0000000000000000e+00  0.0000000000000000e+00 0.0000000000000000e+00 0.0000000000000000e+00  0.0000000000000000e+00 0.0000000000000000e+00 0.0000000000000000e+00  0.0000000000000000e+00 0.0000000000000000e+00 0.0000000000000000e+00  0.0000000000000000e+00 0.0000000000000000e+00 0.0000000000000000e+00  0.0000000000000000e+00 0.0000000000000000e+00 0.0000000000000000e+00  0.0000000000000000e+00 0.0000000000000000e+00 0.0000000000000000e+00  0.0000000000000000e+00 0.0000000000000000e+00 0.0000000000000000e+00  0.0000000000000000e+00 0.0000000000000000e+00 0.0000000000000000e+00  0.0000000000000000e+00 0.0000000000000000e+00 0.0000000000000000e+00  0.0000000000000000e+00 0.0000000000000000e+00 0.0000000000000000e+00  0.0000000000000000e+00 0.0000000000000000e+00 0.0000000000000000e+00  0.0000000000000000e+00 0.0000000000000000e+00 0.0000000000000000e+00  0.0000000000000000e+00 0.0000000000000000e+00 0.0000000000000000e+00  0.0000000000000000e+00 0.0000000000000000e+00 0.0000000000000000e+00  0.0000000000000000e+00 0.0000000000000000e+00 0.0000000000000000e+00  0.0000000000000000e+00 0.0000000000000000e+00 0.0000000000000000e+00  0.0000000000000000e+00 0.0000000000000000e+00 0.0000000000000000e+00  0.0000000000000000e+00 0.0000000000000000e+00 0.0000000000000000e+00  0.0000000000000000e+00 0.0000000000000000e+00 0.0000000000000000e+00  0.0000000000000000e+00 0.0000000000000000e+00 0.0000000000000000e+00  0.0000000000000000e+00 0.0000000000000000e+00 0.0000000000000000e+00  0.0000000000000000e+00 0.0000000000000000e+00 0.0000000000000000e+00  0.0000000000000000e+00 0.0000000000000000e+00 0.0000000000000000e+00  0.0000000000000000e+00 0.0000000000000000e+00 0.0000000000000000e+00  0.0000000000000000e+00 0.0000000000000000e+00 0.0000000000000000e+00  0.0000000000000000e+00 0.0000000000000000e+00 0.0000000000000000e+00  0.0000000000000000e+00 0.0000000000000000e+00 0.0000000000000000e+00  0.0000000000000000e+00 0.0000000000000000e+00 0.0000000000000000e+00  0.0000000000000000e+00 0.0000000000000000e+00 0.0000000000000000e+00  0.0000000000000000e+00 0.0000000000000000e+00 0.0000000000000000e+00  0.0000000000000000e+00 0.0000000000000000e+00 0.0000000000000000e+00  0.0000000000000000e+00 0.0000000000000000e+00 0.0000000000000000e+00  0.0000000000000000e+00 0.0000000000000000e+00 0.0000000000000000e+00  0.0000000000000000e+00 0.0000000000000000e+00 0.0000000000000000e+00  0.0000000000000000e+00 0.0000000000000000e+00 0.0000000000000000e+00  0.0000000000000000e+00 0.0000000000000000e+00 0.0000000000000000e+00  0.0000000000000000e+00 0.0000000000000000e+00 0.0000000000000000e+00  0.0000000000000000e+00 0.0000000000000000e+00 0.0000000000000000e+00  0.0000000000000000e+00 0.0000000000000000e+00 0.0000000000000000e+00  0.0000000000000000e+00 0.0000000000000000e+00 0.0000000000000000e+00  0.0000000000000000e+00 0.0000000000000000e+00 0.0000000000000000e+00  0.0000000000000000e+00 0.0000000000000000e+00 0.0000000000000000e+00  0.0000000000000000e+00 0.0000000000000000e+00 0.0000000000000000e+00  0.0000000000000000e+00 0.0000000000000000e+00 0.0000000000000000e+00  0.0000000000000000e+00 0.0000000000000000e+00 0.0000000000000000e+00  0.0000000000000000e+00 0.0000000000000000e+00 0.0000000000000000e+00  0.0000000000000000e+00 0.0000000000000000e+00 0.0000000000000000e+00  0.0000000000000000e+00 0.0000000000000000e+00 0.0000000000000000e+00  0.0000000000000000e+00 0.0000000000000000e+00 0.0000000000000000e+00  0.0000000000000000e+00 0.0000000000000000e+00 0.0000000000000000e+00  0.0000000000000000e+00 0.0000000000000000e+00 0.0000000000000000e+00  0.0000000000000000e+00 0.0000000000000000e+00 0.0000000000000000e+00  0.0000000000000000e+00 0.0000000000000000e+00 0.0000000000000000e+00  0.0000000000000000e+00 0.0000000000000000e+00 0.0000000000000000e+00  0.0000000000000000e+00 0.0000000000000000e+00 0.0000000000000000e+00  0.0000000000000000e+00 0.0000000000000000e+00 0.00000000000000